# vtk DataFile Version 2.0
Generated with Solid Solver
ASCII
DATASET UNSTRUCTURED_GRID
POINTS 1581 float 
0.0 0.0 0.0
500.0 0.0 0.0
500.0 2000.0 0.0
0.0 2000.0 0.0
29.4117647059 0.0 0.0
58.8235294118 0.0 0.0
88.2352941176 0.0 0.0
117.647058823 0.0 0.0
147.058823529 0.0 0.0
176.470588235 0.0 0.0
205.882352941 0.0 0.0
235.294117647 0.0 0.0
264.705882353 0.0 0.0
294.117647059 0.0 0.0
323.529411765 0.0 0.0
352.941176471 0.0 0.0
382.352941176 0.0 0.0
411.764705882 0.0 0.0
441.176470588 0.0 0.0
470.588235294 0.0 0.0
500.0 29.8507462686 0.0
500.0 59.7014925373 0.0
500.0 89.5522388059 0.0
500.0 119.402985075 0.0
500.0 149.253731343 0.0
500.0 179.104477612 0.0
500.0 208.955223881 0.0
500.0 238.805970149 0.0
500.0 268.656716418 0.0
500.0 298.507462686 0.0
500.0 328.358208955 0.0
500.0 358.208955224 0.0
500.0 388.059701492 0.0
500.0 417.910447761 0.0
500.0 447.761194029 0.0
500.0 477.611940298 0.0
500.0 507.462686566 0.0
500.0 537.313432835 0.0
500.0 567.164179104 0.0
500.0 597.014925372 0.0
500.0 626.865671641 0.0
500.0 656.71641791 0.0
500.0 686.567164178 0.0
500.0 716.417910447 0.0
500.0 746.268656716 0.0
500.0 776.119402984 0.0
500.0 805.970149253 0.0
500.0 835.820895522 0.0
500.0 865.67164179 0.0
500.0 895.522388059 0.0
500.0 925.373134328 0.0
500.0 955.223880596 0.0
500.0 985.074626865 0.0
500.0 1014.92537313 0.0
500.0 1044.7761194 0.0
500.0 1074.62686567 0.0
500.0 1104.47761194 0.0
500.0 1134.32835821 0.0
500.0 1164.17910448 0.0
500.0 1194.02985075 0.0
500.0 1223.88059701 0.0
500.0 1253.73134328 0.0
500.0 1283.58208955 0.0
500.0 1313.43283582 0.0
500.0 1343.28358209 0.0
500.0 1373.13432836 0.0
500.0 1402.98507463 0.0
500.0 1432.8358209 0.0
500.0 1462.68656716 0.0
500.0 1492.53731343 0.0
500.0 1522.3880597 0.0
500.0 1552.23880597 0.0
500.0 1582.08955224 0.0
500.0 1611.94029851 0.0
500.0 1641.79104478 0.0
500.0 1671.64179104 0.0
500.0 1701.49253731 0.0
500.0 1731.34328358 0.0
500.0 1761.19402985 0.0
500.0 1791.04477612 0.0
500.0 1820.89552239 0.0
500.0 1850.74626866 0.0
500.0 1880.59701493 0.0
500.0 1910.44776119 0.0
500.0 1940.29850746 0.0
500.0 1970.14925373 0.0
470.588235294 2000.0 0.0
441.176470588 2000.0 0.0
411.764705882 2000.0 0.0
382.352941176 2000.0 0.0
352.941176471 2000.0 0.0
323.529411765 2000.0 0.0
294.117647059 2000.0 0.0
264.705882353 2000.0 0.0
235.294117647 2000.0 0.0
205.882352941 2000.0 0.0
176.470588235 2000.0 0.0
147.058823529 2000.0 0.0
117.647058824 2000.0 0.0
88.2352941176 2000.0 0.0
58.8235294118 2000.0 0.0
29.4117647059 2000.0 0.0
0.0 1970.14925373 0.0
0.0 1940.29850746 0.0
0.0 1910.44776119 0.0
0.0 1880.59701493 0.0
0.0 1850.74626866 0.0
0.0 1820.89552239 0.0
0.0 1791.04477612 0.0
0.0 1761.19402985 0.0
0.0 1731.34328358 0.0
0.0 1701.49253731 0.0
0.0 1671.64179104 0.0
0.0 1641.79104478 0.0
0.0 1611.94029851 0.0
0.0 1582.08955224 0.0
0.0 1552.23880597 0.0
0.0 1522.3880597 0.0
0.0 1492.53731343 0.0
0.0 1462.68656716 0.0
0.0 1432.8358209 0.0
0.0 1402.98507463 0.0
0.0 1373.13432836 0.0
0.0 1343.28358209 0.0
0.0 1313.43283582 0.0
0.0 1283.58208955 0.0
0.0 1253.73134328 0.0
0.0 1223.88059701 0.0
0.0 1194.02985075 0.0
0.0 1164.17910448 0.0
0.0 1134.32835821 0.0
0.0 1104.47761194 0.0
0.0 1074.62686567 0.0
0.0 1044.7761194 0.0
0.0 1014.92537313 0.0
0.0 985.074626866 0.0
0.0 955.223880597 0.0
0.0 925.373134328 0.0
0.0 895.52238806 0.0
0.0 865.671641791 0.0
0.0 835.820895522 0.0
0.0 805.970149254 0.0
0.0 776.119402985 0.0
0.0 746.268656716 0.0
0.0 716.417910448 0.0
0.0 686.567164179 0.0
0.0 656.71641791 0.0
0.0 626.865671642 0.0
0.0 597.014925373 0.0
0.0 567.164179104 0.0
0.0 537.313432836 0.0
0.0 507.462686567 0.0
0.0 477.611940298 0.0
0.0 447.76119403 0.0
0.0 417.910447761 0.0
0.0 388.059701493 0.0
0.0 358.208955224 0.0
0.0 328.358208955 0.0
0.0 298.507462687 0.0
0.0 268.656716418 0.0
0.0 238.805970149 0.0
0.0 208.955223881 0.0
0.0 179.104477612 0.0
0.0 149.253731343 0.0
0.0 119.402985075 0.0
0.0 89.552238806 0.0
0.0 59.7014925373 0.0
0.0 29.8507462687 0.0
250.0 1750.19044053 0.0
250.0 249.809559469 0.0
250.0 522.388059701 0.0
253.19577301 1478.91574116 0.0
250.131354009 1148.877061 0.0
250.713411072 820.663539359 0.0
320.896049101 992.126261304 0.0
178.909556694 1313.43283582 0.0
167.921751708 668.694195086 0.0
330.767095997 677.510653803 0.0
336.864575683 387.667348827 0.0
162.592373124 1612.30234645 0.0
338.901494346 1613.06431072 0.0
164.420681304 391.635446527 0.0
334.366408285 1283.03018741 0.0
161.808210933 956.56387184 0.0
353.62836197 146.397882728 0.0
152.704097436 146.722347019 0.0
146.37163803 1853.60211727 0.0
347.295902564 1853.27765298 0.0
132.607297105 1086.45585321 0.0
362.156917771 1413.61055947 0.0
127.723468293 1437.22480119 0.0
370.928979982 866.013443858 0.0
370.928979982 1104.13580987 0.0
126.611228003 793.014459414 0.0
129.213453994 551.484588414 0.0
369.524870539 553.717014172 0.0
123.685970307 1733.00175783 0.0
376.314029693 266.998242173 0.0
376.098544977 1731.75454623 0.0
123.901455023 268.245453771 0.0
121.071522396 1204.90613277 0.0
243.924553124 1891.25322504 0.0
256.075446876 108.746774961 0.0
391.856371695 1520.17752692 0.0
264.191650556 1373.86903301 0.0
233.683149414 1050.5210355 0.0
389.911335029 762.460622896 0.0
102.781816667 1528.55577265 0.0
400.094950883 1203.57024111 0.0
250.619613682 722.313612484 0.0
248.262219187 620.302732108 0.0
96.9916764588 458.793797268 0.0
96.7091923763 884.147149083 0.0
403.276914724 458.087534186 0.0
250.063216122 923.606844854 0.0
244.688781221 1247.62102598 0.0
250.766719353 348.405953154 0.0
249.233280647 1651.59404685 0.0
92.2066653584 1348.15486399 0.0
410.617381698 951.015911582 0.0
87.2783077761 1009.53576836 0.0
410.908309079 1336.80304519 0.0
90.2108313146 711.388799863 0.0
236.363227299 1569.54846668 0.0
261.368463567 434.618430708 0.0
412.171082144 629.805481859 0.0
414.396466633 345.802826984 0.0
87.2250812123 1651.67297996 0.0
414.396466633 1654.19717302 0.0
85.3445306226 344.527912272 0.0
89.527820805 86.2253022973 0.0
410.472179195 86.2253022973 0.0
89.5278208051 1913.7746977 0.0
410.472179195 1913.7746977 0.0
181.441677076 470.468805099 0.0
177.873833908 872.350512977 0.0
86.2698580503 626.096834127 0.0
411.468559901 1031.18472238 0.0
81.1565885765 1802.80940118 0.0
418.31805018 1802.75469177 0.0
81.6819498195 197.245308234 0.0
418.843411424 197.19059882 0.0
323.026334756 1201.91922225 0.0
310.304736175 1531.54670993 0.0
326.822442318 482.796579737 0.0
316.526056328 771.486780458 0.0
178.747748593 1512.05537918 0.0
283.87244555 177.182128894 0.0
216.12755445 1822.81787111 0.0
81.9925000704 1146.49959962 0.0
318.323552319 77.0294381675 0.0
181.67644768 1922.97056183 0.0
321.64515371 1927.50000014 0.0
178.35484629 72.4999998587 0.0
79.8779626128 1268.35725664 0.0
181.112801298 216.812499743 0.0
318.887198702 1783.18750026 0.0
198.249450455 1388.72242619 0.0
293.574652655 1085.40097206 0.0
172.983435039 1150.36765158 0.0
307.345381339 298.041202557 0.0
190.301911176 299.574915234 0.0
192.654618661 1701.95879744 0.0
309.698088824 1700.42508477 0.0
181.764119202 743.680765154 0.0
196.551552285 572.318603054 0.0
424.151119063 1454.32498416 0.0
424.966525497 1582.80889607 0.0
300.674002222 569.790234048 0.0
429.37708111 1267.30038349 0.0
430.08012781 817.525398378 0.0
429.809007293 697.078233874 0.0
304.815406573 868.009579994 0.0
69.5909019074 1469.2017377 0.0
427.671878583 1138.16463211 0.0
177.178853993 1243.63781357 0.0
319.748334774 1462.91925138 0.0
162.727233937 1026.42216229 0.0
334.882933717 1357.49791378 0.0
68.8651982807 518.348659547 0.0
66.0524319086 824.884050694 0.0
430.423092115 517.150656983 0.0
66.9327209626 1588.01286755 0.0
67.0434193916 946.37269547 0.0
63.9013882958 1070.18624008 0.0
342.246372517 211.561285988 0.0
157.753627482 1788.43871401 0.0
433.889790607 891.429075662 0.0
223.751513011 979.42171224 0.0
278.151533552 1305.41753216 0.0
338.496887163 914.962786548 0.0
352.528473258 1041.87649074 0.0
61.9661359262 1403.65265996 0.0
207.647434159 155.887901737 0.0
292.352565841 1844.11209826 0.0
435.545197518 282.559672443 0.0
60.1451254999 1714.79479744 0.0
437.351556302 1713.76688903 0.0
65.2888586003 285.269447337 0.0
57.7672094041 407.025249425 0.0
144.523745835 614.08499792 0.0
179.605777176 805.685811095 0.0
450.654504827 408.922881161 0.0
437.477423276 1394.09364096 0.0
351.217788501 607.079384887 0.0
195.06038938 1451.82125894 0.0
188.983848485 1097.21809795 0.0
59.3698670657 1208.95522388 0.0
59.4868100174 1859.84305562 0.0
440.513189983 1859.84305562 0.0
59.4868100173 140.156944381 0.0
440.513189983 140.156944381 0.0
58.3442227471 760.346198757 0.0
445.975112427 575.009909128 0.0
324.793758559 1139.65947813 0.0
358.339789824 329.354053768 0.0
141.244363946 1671.16954856 0.0
356.234758469 1670.60120786 0.0
148.773707626 324.482329464 0.0
212.953074323 1195.20149887 0.0
219.48822451 395.78511886 0.0
282.723545306 1607.74702171 0.0
360.110177237 804.619350606 0.0
229.448982924 666.488348981 0.0
138.248161198 1279.36065455 0.0
50.9439013336 573.097334023 0.0
443.73740076 1084.88899267 0.0
348.785344619 724.667035166 0.0
286.456719204 1034.29851338 0.0
236.840682829 1423.38248854 0.0
232.209042357 1943.39042476 0.0
267.790957643 56.6095752431 0.0
312.371058091 1406.13336928 0.0
151.08339737 1556.87008508 0.0
136.827876713 1378.03466621 0.0
449.584663654 1503.85034012 0.0
130.232256576 53.5134873488 0.0
367.209877588 51.6938608404 0.0
132.790122412 1948.30613916 0.0
369.767743424 1946.48651265 0.0
379.27035458 1573.11544709 0.0
198.93433076 1871.96893303 0.0
301.06566924 128.031066971 0.0
132.894860088 494.573362062 0.0
371.212662887 1467.78854561 0.0
225.443350982 1333.83565326 0.0
279.266630846 677.036550624 0.0
54.5083118621 670.120154679 0.0
447.70171813 762.426916908 0.0
440.67395023 985.463010095 0.0
355.654099515 438.677742111 0.0
131.55015428 1486.23541305 0.0
226.615995798 773.438198921 0.0
131.544840235 849.980871688 0.0
198.417674135 626.073004147 0.0
373.949677764 992.919625372 0.0
353.095081587 1237.4492932 0.0
215.509433148 1613.53316978 0.0
283.708345668 388.041435016 0.0
[...]
POINT_DATA 1581
VECTORS Displacement float
0.0 0.0 0
0.0 0.0 0
4.06537712872 -0.635197844558 0
4.07037539473 0.646786513771 0
0.0 0.0 0
0.0 0.0 0
0.0 0.0 0
0.0 0.0 0
0.0 0.0 0
0.0 0.0 0
0.0 0.0 0
0.0 0.0 0
0.0 0.0 0
0.0 0.0 0
0.0 0.0 0
0.0 0.0 0
0.0 0.0 0
0.0 0.0 0
0.0 0.0 0
0.0 0.0 0
0.0207726192335 -0.0340922884098 0
0.0367442607524 -0.0623903583276 0
0.0531722220747 -0.0884202410237 0
0.0718023046142 -0.113758629123 0
0.0925721997909 -0.137900855485 0
0.115899477421 -0.16153970309 0
0.14164925574 -0.184508963967 0
0.170152744442 -0.207077243385 0
0.200834653982 -0.228334277921 0
0.234366325923 -0.248983239011 0
0.269935426024 -0.269387301879 0
0.307822271974 -0.288758375856 0
0.347897599045 -0.307579531947 0
0.390518781183 -0.325728660014 0
0.43466012866 -0.342962763723 0
0.481021183508 -0.359723385097 0
0.529292086054 -0.375980718223 0
0.579289474017 -0.391379635264 0
0.631198407741 -0.40614565307 0
0.684525639973 -0.42031659284 0
0.739568953806 -0.434057755039 0
0.796085840806 -0.446999668694 0
0.854015561438 -0.459398095259 0
0.913431098847 -0.471386499967 0
0.97416140341 -0.482846195952 0
1.03605176858 -0.493563771642 0
1.09921947593 -0.503966166015 0
1.16344941705 -0.513704879992 0
1.22885077837 -0.523053284154 0
1.29512989268 -0.531814054071 0
1.36246331591 -0.540226824588 0
1.43073346797 -0.548177867092 0
1.49972192637 -0.555499399188 0
1.56952313447 -0.562438424863 0
1.64011316333 -0.569160978077 0
1.71132799822 -0.575292322217 0
1.78327834688 -0.581078060524 0
1.85582786372 -0.586547746456 0
1.92885310504 -0.591582253949 0
2.00248759201 -0.596288508762 0
2.07646300281 -0.600585255828 0
2.1509212817 -0.604608323637 0
2.22577843249 -0.608309984813 0
2.30102467132 -0.611718147316 0
2.37650658655 -0.614796410568 0
2.45234049308 -0.617647287032 0
2.52835999962 -0.620180154062 0
2.60464276194 -0.622493594598 0
2.68110013612 -0.624559191448 0
2.75776733454 -0.626391631616 0
2.834501009 -0.62798314866 0
2.91137553279 -0.629416867252 0
2.98830855699 -0.6306316288 0
3.06533355806 -0.631663259144 0
3.14239625808 -0.632547259825 0
3.21946983881 -0.633277351124 0
3.29657176511 -0.633859799809 0
3.37363912736 -0.634320990171 0
3.45070686122 -0.634675403786 0
3.52771945697 -0.634913858186 0
3.60469047151 -0.635088706417 0
3.68161106507 -0.635183092024 0
3.75846520134 -0.635226338139 0
3.8352633106 -0.635228679249 0
3.91200242441 -0.635218160491 0
3.98869865486 -0.635202121131 0
4.06537282895 -0.559642051016 0
4.06535713721 -0.484102552914 0
4.06534627346 -0.408607057348 0
4.06535237327 -0.333156452979 0
4.06539604034 -0.257763054053 0
4.06548105371 -0.182427542299 0
4.06563455968 -0.107117121189 0
4.06585812171 -0.0318468819756 0
4.06615413217 0.0434288448175 0
4.06652487792 0.118707557526 0
4.06695327075 0.194020411555 0
4.06744998273 0.269354021275 0
4.06799920641 0.344742851708 0
4.06858154588 0.420195002755 0
4.06917888223 0.495695021971 0
4.06978290155 0.571230955121 0
3.99369713707 0.646611697461 0
3.91700117784 0.646448270395 0
3.84026286179 0.646279755586 0
3.76346567755 0.646098259121 0
3.68661283128 0.64587577821 0
3.60969431105 0.645601599491 0
3.5327228933 0.645250603631 0
3.45570724016 0.644833492563 0
3.37863796231 0.644300303855 0
3.30157259991 0.643659314797 0
3.22447258857 0.642897202356 0
3.14739917442 0.641989949053 0
3.07033288052 0.640919131693 0
2.99331759038 0.639691289976 0
2.91637321099 0.638302434693 0
2.83949250339 0.636723376084 0
2.76275710552 0.634949392674 0
2.68610502717 0.63293367005 0
2.60963833438 0.63068343253 0
2.53337082653 0.628181811567 0
2.45735033672 0.625476570885 0
2.38151771684 0.622439604043 0
2.30601952229 0.619189216492 0
2.23077475582 0.615584716864 0
2.15592600467 0.611734278283 0
2.08146774606 0.607531276149 0
2.00743388758 0.603051785403 0
1.93387146661 0.598173180308 0
1.86078395751 0.592902699543 0
1.78827380828 0.587297580913 0
1.71637632902 0.581305397528 0
1.64516697976 0.575027913987 0
1.57452669251 0.568198427353 0
1.50471715952 0.561063141286 0
1.43562677764 0.553347136162 0
1.36746493564 0.545323798612 0
1.30019062014 0.536831743159 0
1.23385255713 0.527843767344 0
1.16846458862 0.518322159183 0
1.10422351015 0.508373116447 0
1.04108199671 0.497727858813 0
0.979118498121 0.486899670693 0
0.918493603902 0.475285736932 0
0.859050923098 0.463178631131 0
0.801024719323 0.450509756467 0
0.744557438874 0.43743201247 0
0.689525417164 0.423550542741 0
0.636152373408 0.409160366063 0
0.584320864068 0.394157080289 0
0.534299136922 0.378641926094 0
0.486054068257 0.362181961982 0
0.439705517922 0.345201609583 0
0.395662541122 0.327834642948 0
0.353033209452 0.309589932103 0
0.312964888481 0.290687009148 0
0.274973745044 0.271174860579 0
0.239340775094 0.250630913293 0
0.205750089096 0.229870150876 0
0.17496999302 0.208527016355 0
0.146351405289 0.185904386034 0
0.120501378537 0.162919154161 0
0.0969523591185 0.139258752647 0
0.0757819154644 0.115076281919 0
0.0566421976728 0.0896879979663 0
0.0395541383453 0.0635410153562 0
0.0225788984744 0.0349745186399 0
3.42266430981 0.0050453873171 0
0.154524637355 0.000422064082115 0
0.535395253041 0.00140493018695 0
2.72119777569 -0.00374309850774 0
1.88576215267 0.00293717478546 0
1.11913732066 0.000815642422518 0
1.5081126811 -0.153019976072 0
2.29889283268 0.176692608934 0
0.806941249959 0.14631522702 0
0.822595494331 -0.141636804124 0
0.327252126777 -0.100447424342 0
3.06711460172 0.225751966281 0
3.06733361384 -0.220281233407 0
0.334624381373 0.101725983537 0
2.22061748404 -0.200412911906 0
1.4272337001 0.193396878932 0
0.0660666963936 -0.0482789166227 0
0.0670744560208 0.0455559055157 0
3.69112330198 0.270227064083 0
3.68823191589 -0.243310381348 0
1.73651853143 0.271968905646 0
2.55322071645 -0.273995844821 0
2.61633750801 0.30835287587 0
1.22096833375 -0.247035046639 0
1.77715628046 -0.275657128083 0
1.06440434764 0.244650141 0
0.591885991473 0.18853363453 0
0.593223303477 -0.18426566081 0
3.38012308754 0.32687065869 0
0.179309176756 -0.106912529301 0
3.37437856416 -0.316317275002 0
0.18311215869 0.108356494186 0
2.02792696729 0.310027845642 0
3.78681179692 0.0209953000023 0
0.0372519575941 -0.00213441120329 0
2.82751508501 -0.352284644597 0
2.45145958203 -0.0309707123491 0
1.6467623689 0.039692737245 0
0.998294312123 -0.267144660304 0
2.85210603617 0.374890741957 0
2.02250472959 -0.354005001012 0
0.91158201918 0.000724573509733 0
0.711102455012 0.00454719602275 0
0.441510217842 0.208935532287 0
1.26597733196 0.323139558426 0
0.437347312717 -0.206720415608 0
1.34897260495 0.00245339697429 0
2.13155387289 0.0162911422847 0
0.27149892285 -0.000167245279532 0
3.16753294333 0.00668621199441 0
2.3898258372 0.391802174789 0
1.41528062757 -0.345925908958 0
1.55513507665 0.36576996218 0
2.35786215375 -0.391092673919 0
0.897827174831 0.297611528921 0
2.95536966168 0.0388554885494 0
0.393822458417 -0.013481462306 0
0.735376911727 -0.275908357388 0
0.277834604847 -0.177293221305 0
3.1706069131 0.418364061125 0
3.17388520224 -0.413069632545 0
0.279699572577 0.178706371629 0
0.0351415559747 0.0456370258066 0
0.0332544808596 -0.0454253286192 0
3.84706453315 0.416330706532 0
3.84385480557 -0.4052587291 0
0.452179728841 0.0946427885319 0
1.23496313379 0.151164183327 0
0.731773772826 0.280836857701 0
1.60303469552 -0.360488558132 0
3.56132271562 0.436734484351 0
3.55779933419 -0.424978798061 0
0.118456332966 0.110903531987 0
0.115426923085 -0.110372099945 0
2.0170718777 -0.16968348679 0
2.85663884744 -0.14704659885 0
0.470973073025 -0.105718590911 0
1.01415619136 -0.125911776323 0
2.80774363452 0.182939941354 0
0.0862988624288 -0.0187336852362 0
3.6106980254 0.0917293877008 0
1.88537443832 0.397403536055 0
0.0216020806173 -0.0159727380101 0
3.86919134337 0.180318171265 0
3.87945069416 -0.177692980545 0
0.0203590473413 0.015723766561 0
2.18847259061 0.415712305009 0
0.124407377865 0.0474924965345 0
3.50745308983 -0.170554089643 0
2.49031595257 0.131518829466 0
1.73052226872 -0.0963183194764 0
1.891042396 0.18307118049 0
0.209463310412 -0.0522975391992 0
0.212612022026 0.0560034446354 0
3.29861198723 0.150674357845 0
3.29348352635 -0.146849746557 0
0.957531079611 0.130425771571 0
0.624378567164 0.0857153390438 0
2.65836392794 -0.431192883352 0
2.98944313168 -0.438322868922 0
0.618540524338 -0.0781596914857 0
2.182657455 -0.431134319217 0
1.11801396523 -0.360425651967 0
0.867582393221 -0.327810929896 0
1.22353659119 -0.110216248507 0
2.70028625535 0.456153156378 0
1.86192148244 -0.412940742139 0
2.12281509329 0.177967337431 0
2.67968087072 -0.169669560315 0
1.59122614278 0.197775827157 0
2.40961201509 -0.204461499242 0
0.541846922803 0.272988553922 0
1.13784726869 0.374814181132 0
0.535925147968 -0.268742386813 0
3.00660622604 0.468249968943 0
1.4094487322 0.399882417933 0
1.70106582016 0.429298642058 0
0.119667262806 -0.0617595975806 0
3.52277127098 0.240537264936 0
1.28100185608 -0.385380759111 0
1.47851437719 0.0600327117381 0
2.27716659228 -0.0646402914564 0
1.32992810296 -0.184724434343 0
1.6265759409 -0.227682380676 0
2.53251209891 0.471309151837 0
0.0702777833308 0.0207727539168 0
3.6648987589 -0.102846958053 0
0.204371761015 -0.169988056765 0
3.33445173963 0.489184097248 0
3.32798954349 -0.472863826884 0
0.210971166523 0.172010179283 0
0.369289449741 0.241484129035 0
0.703856935158 0.177518963934 0
1.08860280062 0.141209176618 0
0.369314155199 -0.251695979048 0
2.50431289968 -0.461293246388 0
0.688606983673 -0.165640372193 0
2.65227552256 0.140859450768 0
1.76052126649 0.142979483609 0
2.04092075759 0.459483584427 0
3.70881277323 0.49297883112 0
3.7050034426 -0.482232047164 0
0.0762640674306 0.0925677435841 0
0.0732250467752 -0.0917782949618 0
1.00146008207 0.373204572856 0
0.637964669304 -0.316109281935 0
1.86308099102 -0.170843150973 0
0.250907958269 -0.109740310651 0
3.21984276218 0.281068117126 0
3.21619252401 -0.265013495204 0
0.246227575005 0.102521935368 0
2.00094234704 0.0909215353545 0
0.337392453534 0.0370238607649 0
3.05376549178 -0.0780738939586 0
1.0861504146 -0.215591564151 0
0.800209038247 0.0377926222873 0
2.21388039066 0.273990493545 0
0.638880989291 0.323654973659 0
1.73303198834 -0.443489710411 0
0.917979716767 -0.181455785959 0
1.60770492943 -0.0786420228108 0
2.57854163631 0.0366588839157 0
3.92101864678 0.0511311870089 0
0.0126397659836 -0.00313686391725 0
2.53386795998 -0.150189806721 0
2.92401973033 0.253660406551 0
2.46446515578 0.282943852112 0
2.78607257835 -0.49807599427 0
0.0147293613973 0.0197922931262 0
0.0130613186175 -0.0186570548974 0
3.93505701793 0.305637777889 0
3.9280274921 -0.300914107279 0
2.96410894904 -0.321883355707 0
3.73767322638 0.135916587949 0
0.0500386657289 -0.0202764320044 0
0.494846640073 0.16836014537 0
2.69241669457 -0.298556832645 0
2.34981063195 0.0637434625097 0
0.820553807374 -0.0500007177067 0
0.819670563009 0.352622133541 0
1.00248207956 -0.381895753374 0
1.49679849485 -0.419451404058 0
0.403124484674 -0.135962773886 0
2.74223580859 0.300707017176 0
1.0182165998 0.0470689157617 0
1.18772955995 0.24415887441 0
0.723402033816 0.0883621664784 0
1.51125931416 -0.270685882592 0
2.1061499977 -0.243406252226 0
3.06942615249 0.0918313007815 0
0.325763551083 -0.0382448059913 0
0.368989130446 0.16571567759 0
1.89995126454 -0.287612893513 0
0.532545706716 0.078535485914 0
1.31530642372 0.226783727026 0
1.32326742506 0.116392724186 0
0.151480618834 -0.0397404520596 0
3.43288787851 0.137724875767 0
0.729945128107 -0.0904291232003 0
2.06106355115 -0.471773054813 0
2.88528559688 0.505370919132 0
0.801860282327 0.242931925778 0
2.12843742611 -0.115717627033 0
1.2332479697 0.0467178107081 0
1.44266463038 -0.0489013118088 0
0.109888898542 0.0748743382546 0
3.56106014618 -0.296128478264 0
2.31041860171 0.490445541637 0
1.7653401106 0.0166382975565 0
0.273882981026 0.0566028543101 0
3.16590731094 -0.12858947393 0
0.896302185893 0.207376478871 0
0.330089052676 -0.163416433675 0
0.0209286123699 0.0340252443212 0
0.0193107074527 -0.0337696726136 0
3.94610316792 0.525290611582 0
3.94204898283 -0.513990066684 0
2.01495727352 -0.0292579026358 0
0.816893419406 -0.234698343671 0
0.106549752959 0.00819546950619 0
3.54934348143 -0.0274691762696 0
0.495728224517 -0.178907019536 0
0.462016038704 0.0272704698015 0
0.158077831849 -0.158703744073 0
3.46013499352 0.517834320108 0
3.45958913505 -0.506860267499 0
0.160544444671 0.158930696701 0
3.06638270118 0.354015985996 0
0.00885890747112 0.00400148997156 0
3.95167284279 -0.0737938969779 0
1.44932223623 0.316095361244 0
0.454573153114 0.279289467231 0
0.450395477305 -0.277925769184 0
2.24715263986 -0.329464847034 0
1.26038993049 0.429863737738 0
1.86252655494 0.293533498707 0
2.22514532715 0.0746774510614 0
0.621149726904 0.00834219906488 0
1.11760697422 -0.0954462534119 0
0.208408008965 -0.0071208635006 0
3.29797388016 0.0262219048675 0
3.09759176087 -0.511214893242 0
2.84244858005 -0.0264668380695 0
2.29189086202 -0.490080017081 0
1.37851099107 -0.445334482787 0
0.909541296692 -0.0906375662406 0
3.17683830554 0.157615816385 0
0.268165209878 -0.0625981784488 0
0.0372166826036 0.0361518542955 0
0.0381992689399 -0.0373826642958 0
3.80324372786 0.299284355471 0
3.81138733702 -0.289978093677 0
0.790597208604 -0.356512360966 0
1.60391540283 0.464291038595 0
0.536401705641 -0.0691620115512 0
0.463389078657 -0.0390397289969 0
3.07969284488 -0.336570952102 0
3.11683569579 0.524952928745 0
1.32029225806 -0.282197850243 0
2.00014068713 0.199592138624 0
2.33242490326 0.286570880353 0
2.4305492733 0.509210376448 0
0.394252490785 0.121987654958 0
0.388272418675 -0.071105205418 0
1.63137587361 0.291776957318 0
2.44624936176 -0.325586227636 0
0.170512910343 0.0672878800223 0
3.39294863437 -0.202320003407 0
0.0762606695838 -0.0745623035013 0
0.079141291265 0.0751180216764 0
3.6732901306 0.383242752604 0
3.66856137402 -0.371479790311 0
2.96612408848 0.154167564504 0
1.80305864693 0.47688330791 0
0.919890636 0.39046944104 0
3.77365125627 -0.101652280254 0
0.0413048597253 0.0147210899267 0
1.49194610419 0.465938667196 0
0.311967217594 0.237238016618 0
0.978284954931 0.27571129605 0
0.310213817128 -0.237681044521 0
3.22187527997 -0.517982981292 0
2.78654509567 -0.240821861547 0
3.81565032704 0.533258014921 0
0.0485217119177 -0.0722879766632 0
0.0513167301615 0.0729395557686 0
3.81152921563 -0.522261043006 0
2.97134394357 -0.158826899512 0
1.31890148566 -0.0882404321315 0
0.66010870245 -0.23386538975 0
2.40350691319 -0.507676083276 0
0.136357592209 -0.0965566864695 0
3.48962127246 0.345966780904 0
0.996739549746 -0.0407848479656 0
1.9563914143 -0.485957535307 0
3.2300465888 0.53035229426 0
1.93308926931 0.492609331649 0
2.61849458833 -0.0746630343883 0
0.225700801059 -0.142970617364 0
3.2811697842 0.382717989778 0
3.27765736755 -0.377858253039 0
0.228772378414 0.144478484946 0
0.723112167375 0.354140080888 0
2.90191430962 -0.51652627741 0
0.906629361316 -0.258681976729 0
2.84799843547 0.0826936876104 0
0.655746967039 0.238256446778 0
0.879768270481 0.0929557898325 0
1.60825016722 -0.473190217521 0
1.70295804373 -0.332931420739 0
0.399626143621 0.0471400999247 0
1.20125125713 -0.424087714057 0
3.59615412321 0.538996121331 0
3.60056903673 -0.534938667703 0
0.112767441381 0.133417315924 0
0.111032539097 -0.132557073476 0
3.44393484835 -0.396235921262 0
0.159124081753 0.124333049487 0
0.0662289018593 -0.000377311255997 0
3.67440082513 0.00700843045622 0
1.16928590901 -0.167765457849 0
0.305090692382 0.14476024913 0
1.84956198947 0.0883462479213 0
0.542474442183 -0.133531671713 0
2.13773462167 0.507184369254 0
0.0117502774788 0.0197971238538 0
0.0115008335299 -0.0204754164492 0
3.96372496095 0.41252956489 0
3.9654457689 -0.404927040422 0
0.715177552875 -0.351779370492 0
0.258993759065 0.218132490304 0
1.77891037801 0.363750714329 0
0.15287779974 0.0326311643893 0
3.4297253235 -0.10107251771 0
1.92242019445 -0.0808103742082 0
0.254511245599 -0.216521566535 0
1.71889888708 -0.194703829582 0
2.62448864862 0.526914285157 0
2.59541059645 -0.517323675917 0
1.52698826604 0.258455194639 0
2.73802250164 -0.102336202331 0
2.10001778813 -0.350705984134 0
3.96952592167 0.156190364607 0
0.00675511031146 -0.00656130059842 0
1.42739687669 -0.24771166199 0
0.0834671219307 -0.0386366409892 0
3.62489406008 0.188245446864 0
2.39889939706 0.200189576779 0
2.34021676589 -0.287185120229 0
1.5538956119 0.00574970376453 0
1.35728058895 0.317951842705 0
2.28434301877 0.376687660204 0
1.96530043418 0.385626395277 0
2.36942581757 -0.109704599275 0
1.50831350462 0.156222924444 0
2.51404355002 0.359140292199 0
2.77456404479 0.531790539751 0
2.9612779599 0.356305766785 0
2.13346395842 0.363123230657 0
0.17197379551 -0.0708002818108 0
3.38827503517 0.223971068276 0
1.99437207578 -0.238650213748 0
2.57311572304 -0.387323667398 0
0.576895955725 0.127996840765 0
3.965484511 -0.205437328825 0
0.00806735155556 0.0095449211478 0
2.56475769903 0.218963318873 0
0.0875448747762 0.0434288668138 0
3.61550519028 -0.19384395204 0
0.982763790492 0.205786155403 0
1.82524910788 -0.0698202413179 0
2.94018305274 -0.0627777390869 0
1.01212453528 -0.20529800784 0
1.09085589688 -0.41045261585 0
3.40332188811 0.426373144483 0
0.174577909657 -0.137797990307 0
0.11916754657 -0.0122032067158 0
3.5142344447 0.0529873029126 0
0.9245453138 -0.398212090829 0
2.74289656073 0.10064097002 0
1.67976098576 0.197058157105 0
1.20715794378 -0.330326307381 0
0.10050878252 -0.0762105673712 0
3.58788417268 0.328377991077 0
1.81212568193 0.204098531244 0
2.45779724577 0.0682156642305 0
1.81807645284 -0.488775497355 0
1.0791722651 0.426628926507 0
2.61811051552 0.400930488553 0
1.06476714696 0.322284853833 0
2.71555472962 -0.527140864958 0
0.0250880303275 -0.00877323488623 0
3.84597108712 0.0912843459012 0
1.08305751329 -0.293060053373 0
0.58706803179 -0.25340965502 0
1.67556008666 -0.0306696807346 0
1.35863660543 0.461156510147 0
0.58647850939 -0.332769085231 0
1.16550671739 0.0945144866908 0
0.0495633335404 0.0303964901183 0
3.74728047274 -0.194691504607 0
1.26748877178 -0.176388384235 0
0.626925495071 -0.145445231976 0
1.95053830319 0.270998246278 0
1.40581107435 -0.126211959605 0
3.49067024146 -0.281900034443 0
0.134670926523 0.0808215707334 0
0.231690062011 0.0254825832939 0
3.24978825346 -0.0600902594784 0
0.508354984398 0.223655693726 0
2.89303886978 -0.238292171077 0
2.83773193836 0.283276567408 0
0.588666734437 0.334161198373 0
3.32522161222 -0.24816980251 0
0.200494584656 0.0893275583341 0
2.89724515018 -0.426091049026 0
2.68448670371 0.24196316265 0
1.18311171361 0.324419438939 0
1.18920954218 -0.0263889364666 0
0.188596004214 0.0220751726059 0
3.34367670022 -0.0581512255222 0
1.18831046626 0.434129378962 0
0.502213547009 0.311827328943 0
3.75965620991 0.395870721638 0
3.75643856458 -0.386555487434 0
0.0554302055893 0.0611569180347 0
0.053140022694 -0.0604809097325 0
1.80963104165 -0.364236727141 0
0.586850851739 0.24753331086 0
0.504942002454 -0.307324471589 0
2.09380543615 0.0778641187563 0
0.0387259099322 -0.0274920627937 0
3.78943794501 0.213715847904 0
2.15043166726 -0.502170565553 0
2.73307655583 -0.375212238732 0
1.52526010387 -0.364660167684 0
2.96889271523 0.543695766509 0
3.00094370816 -0.550482780063 0
2.76462888281 0.401730348859 0
2.10461701937 0.253504904471 0
0.941284762139 0.068881759007 0
0.680066523262 -0.0510920104592 0
0.435158756084 0.157389975369 0
1.58879257018 -0.181433449369 0
3.86002809503 -0.0529465734571 0
0.0227919832663 0.005515725748 0
1.58620586699 0.102933109544 0
2.2894082321 -0.183398304108 0
0.753226428263 -0.189380451334 0
0.943680957596 -0.324657369092 0
0.419128870595 0.286181644103 0
0.415164790134 -0.287243083832 0
0.243735505009 -0.0298705581641 0
3.22394057328 0.082444386385 0
2.23357947327 0.523945603158 0
0.393512437442 -0.197218176683 0
2.21091099557 0.197609384318 0
0.66941434314 0.0388922617241 0
1.93442587085 -0.364586429834 0
0.337462916104 0.202825717687 0
0.578103859682 -0.0373357026835 0
2.48354270648 -0.217735603553 0
1.1100318594 0.195085162941 0
0.362172842818 0.0810631089435 0
2.60250365244 -0.211408246398 0
1.42169101049 0.116427361319 0
1.67860348686 0.499554883859 0