# vtk DataFile Version 2.0
Generated with Solid Solver
ASCII
DATASET UNSTRUCTURED_GRID
POINTS 856 float 
0.0 3.5 0.0
1.6 3.5 0.0
1.6 4.0 0.0
0.0 4.0 0.0
0.0695652173912 3.5 0.0
0.139130434782 3.5 0.0
0.208695652174 3.5 0.0
0.278260869565 3.5 0.0
0.347826086956 3.5 0.0
0.417391304347 3.5 0.0
0.486956521738 3.5 0.0
0.556521739129 3.5 0.0
0.62608695652 3.5 0.0
0.695652173911 3.5 0.0
0.765217391302 3.5 0.0
0.834782608694 3.5 0.0
0.904347826085 3.5 0.0
0.973913043477 3.5 0.0
1.04347826087 3.5 0.0
1.11304347826 3.5 0.0
1.18260869565 3.5 0.0
1.25217391304 3.5 0.0
1.32173913043 3.5 0.0
1.39130434783 3.5 0.0
1.46086956522 3.5 0.0
1.53043478261 3.5 0.0
1.6 3.56430812594 0.0
1.6 3.62270835268 0.0
1.6 3.6757434324 0.0
1.6 3.7239062376 0.0
1.6 3.76764438351 0.0
1.6 3.80736436404 0.0
1.6 3.84343531219 0.0
1.6 3.87619247117 0.0
1.6 3.90594026707 0.0
1.6 3.93295517284 0.0
1.6 3.95748825478 0.0
1.6 3.97976750982 0.0
1.58000000587 4.0 0.0
1.55999996633 4.0 0.0
1.54000002214 4.0 0.0
1.51999997198 4.0 0.0
1.50000000455 4.0 0.0
1.48000000216 4.0 0.0
1.45999997931 4.0 0.0
1.44000002484 4.0 0.0
1.41999997044 4.0 0.0
1.40000002096 4.0 0.0
1.37999999963 4.0 0.0
1.35999999626 4.0 0.0
1.34000002179 4.0 0.0
1.31999997343 4.0 0.0
1.3000000318 4.0 0.0
1.27999998783 4.0 0.0
1.26000000202 4.0 0.0
1.24000001295 4.0 0.0
1.21999998074 4.0 0.0
1.20000003685 4.0 0.0
1.17999998163 4.0 0.0
1.16000001473 4.0 0.0
1.14000000469 4.0 0.0
1.11999999139 4.0 0.0
1.10000003625 4.0 0.0
1.07999997877 4.0 0.0
1.06000002802 4.0 0.0
1.04000000338 4.0 0.0
1.02000000764 4.0 0.0
1.00000002986 4.0 0.0
0.979999980237 4.0 0.0
0.960000035522 4.0 0.0
0.939999990881 4.0 0.0
0.920000014619 4.0 0.0
0.900000017903 4.0 0.0
0.879999986222 4.0 0.0
0.860000037278 4.0 0.0
0.839999982352 4.0 0.0
0.820000022783 4.0 0.0
0.800000000002 4.0 0.0
0.779999977222 4.0 0.0
0.760000017652 4.0 0.0
0.739999962726 4.0 0.0
0.720000013782 4.0 0.0
0.699999982101 4.0 0.0
0.679999985385 4.0 0.0
0.660000009123 4.0 0.0
0.639999964482 4.0 0.0
0.620000019766 4.0 0.0
0.599999970141 4.0 0.0
0.57999999236 4.0 0.0
0.559999996622 4.0 0.0
0.539999971983 4.0 0.0
0.520000021235 4.0 0.0
0.499999963756 4.0 0.0
0.480000008612 4.0 0.0
0.459999995315 4.0 0.0
0.439999985272 4.0 0.0
0.420000018371 4.0 0.0
0.39999996315 4.0 0.0
0.380000019261 4.0 0.0
0.359999987052 4.0 0.0
0.339999997986 4.0 0.0
0.320000012172 4.0 0.0
0.299999968206 4.0 0.0
0.280000026575 4.0 0.0
0.259999978213 4.0 0.0
0.240000003742 4.0 0.0
0.220000000371 4.0 0.0
0.199999979041 4.0 0.0
0.180000029557 4.0 0.0
0.159999975162 4.0 0.0
0.140000020694 4.0 0.0
0.119999997846 4.0 0.0
0.0999999954514 4.0 0.0
0.0800000280232 4.0 0.0
0.0599999778571 4.0 0.0
0.0400000336732 4.0 0.0
0.0199999941324 4.0 0.0
0.0 3.97976750982 0.0
0.0 3.95748825478 0.0
0.0 3.93295517284 0.0
0.0 3.90594026707 0.0
0.0 3.87619247117 0.0
0.0 3.84343531219 0.0
0.0 3.80736436404 0.0
0.0 3.76764438351 0.0
0.0 3.7239062376 0.0
0.0 3.6757434324 0.0
0.0 3.62270835268 0.0
0.0 3.56430812594 0.0
0.249757905714 3.75212552678 0.0
1.35000000902 3.74954526597 0.0
0.488714190926 3.75947467509 0.0
0.727445026698 3.75983525744 0.0
0.962900270309 3.76055270856 0.0
1.17161197633 3.81755162829 0.0
0.130754031542 3.86878251069 0.0
1.46924596846 3.86878251069 0.0
0.369913852535 3.84868154079 0.0
0.603236233099 3.84763103091 0.0
0.843402107212 3.84736931152 0.0
1.05041705507 3.86611282467 0.0
0.250539323282 3.87785527135 0.0
1.34882231626 3.87787871523 0.0
0.468661896861 3.89189320321 0.0
0.704258117309 3.89639128976 0.0
0.94963922804 3.89654080835 0.0
1.25000000748 3.89875296068 0.0
1.12879020517 3.91059303421 0.0
0.548928478218 3.91905583534 0.0
0.7889268651 3.91906062813 0.0
0.0712526194949 3.93011432704 0.0
1.52874738051 3.93011432704 0.0
1.4740071133 3.74293106904 0.0
0.125992886699 3.74293106904 0.0
0.329956761073 3.92118145982 0.0
1.09412206522 3.66725831207 0.0
0.190000004299 3.92542384899 0.0
1.41098423528 3.92728100222 0.0
0.629999992124 3.92414139091 0.0
0.87000001175 3.92414140592 0.0
0.853391941071 3.71944243214 0.0
0.610032822379 3.72536074396 0.0
0.41090315692 3.92892991009 0.0
0.370435019193 3.7251305208 0.0
1.01000001875 3.93130199947 0.0
1.22823348571 3.68694249365 0.0
1.18894423177 3.93487447818 0.0
1.31063576122 3.93502724255 0.0
0.129927636183 3.94112156482 0.0
1.47007236382 3.94112156482 0.0
1.07646504896 3.76194504855 0.0
1.07000000339 3.94017719684 0.0
0.270000002394 3.93875928556 0.0
1.26759839792 3.80243333593 0.0
0.770332946246 3.83880063275 0.0
0.530342720064 3.83880306325 0.0
0.189898092614 3.63474333735 0.0
1.4101772205 3.6313147556 0.0
0.942883893479 3.62966700486 0.0
0.510631148905 3.62429064243 0.0
0.754670889573 3.63369080225 0.0
0.489999986184 3.94463854908 0.0
0.732500655853 3.9452729887 0.0
0.193627936713 3.81528931126 0.0
1.40183871842 3.81461096917 0.0
0.928721275957 3.94715071018 0.0
0.0604617896557 3.86281267064 0.0
1.53953821034 3.86281267065 0.0
1.25036152032 3.94913766834 0.0
0.30096552553 3.81141484704 0.0
0.297089357677 3.66359682597 0.0
0.394212311705 3.61316974741 0.0
0.831051681923 3.94633984116 0.0
0.592085081305 3.94901138542 0.0
0.669405291514 3.95495209798 0.0
1.3611855791 3.94637621082 0.0
0.928496698914 3.82436133158 0.0
0.444093171593 3.8271987226 0.0
0.683378885111 3.8234871366 0.0
0.372430737197 3.95235208784 0.0
1.19348789949 3.87019408468 0.0
1.15124363553 3.95467023547 0.0
0.229287653728 3.96038323295 0.0
0.646635519079 3.61231195482 0.0
0.986819459779 3.84973028271 0.0
1.11214815433 3.84770266014 0.0
1.50610225987 3.6604664246 0.0
0.0938977401332 3.6604664246 0.0
0.531976760298 3.96138656711 0.0
0.451361041931 3.96112773652 0.0
0.771976835888 3.96138886125 0.0
1.53311213884 3.79435404356 0.0
0.066887861162 3.79435404356 0.0
0.970836553066 3.9620233382 0.0
0.311702426505 3.96111572975 0.0
1.31698094247 3.6658628839 0.0
1.11177843379 3.95948388532 0.0
1.15003411964 3.72957279566 0.0
0.890058924798 3.96133576813 0.0
0.169108880648 3.96040269401 0.0
1.42850737314 3.96465656678 0.0
0.0426347993992 3.9610175717 0.0
1.5573652006 3.9610175717 0.0
1.28993057938 3.85776473604 0.0
1.34652710411 3.82072629166 0.0
0.897316840472 3.87585124602 0.0
0.814484972147 3.79171515708 0.0
0.573290986674 3.7879873938 0.0
1.02164717476 3.69631051635 0.0
0.41798215839 3.87594988344 0.0
1.18469655214 3.6045863568 0.0
0.657426542805 3.87734841349 0.0
0.0893439701605 3.9657484063 0.0
1.51065602984 3.9657484063 0.0
0.850202761783 3.61862953305 0.0
0.185775988195 3.86980628439 0.0
1.41422401181 3.86980628439 0.0
0.305957202498 3.87340573583 0.0
0.629999992124 3.96272981278 0.0
0.686026569054 3.68766751472 0.0
1.03220081924 3.96436031967 0.0
0.445441337222 3.69456289967 0.0
1.33308537187 3.96770341358 0.0
1.0249206042 3.60512275769 0.0
0.128645746764 3.81165411571 0.0
1.47135425324 3.81165411571 0.0
1.29077706219 3.96625078806 0.0
1.21302440104 3.96491551313 0.0
0.373320303365 3.89968789902 0.0
0.409457647309 3.96502881891 0.0
1.39076199588 3.96614348387 0.0
1.2156032112 3.76624353786 0.0
0.383301616321 3.78976397621 0.0
0.593246012246 3.8948346816 0.0
0.833004203108 3.89475034107 0.0
0.187583903859 3.70688411961 0.0
1.41241609614 3.70688411961 0.0
1.08573330585 3.89673930733 0.0
1.04303343403 3.81530385578 0.0
0.103644791029 3.90516202075 0.0
1.49635520897 3.90516202075 0.0
1.23586605501 3.85112068621 0.0
0.921814270996 3.70213058021 0.0
0.532219762185 3.7029333087 0.0
1.28217045716 3.7375098981 0.0
0.779621693208 3.70806977531 0.0
0.998890529268 3.88397615296 0.0
0.659406618131 3.76469373474 0.0
0.230043799244 3.91599372373 0.0
1.53690667654 3.72637971331 0.0
0.0630933234627 3.72637971331 0.0
0.153148105836 3.90639761309 0.0
1.4478092366 3.90500627713 0.0
0.512139854501 3.90538519137 0.0
0.750930702019 3.90340708 0.0
0.0409150717909 3.90046251393 0.0
1.55908492821 3.90046251393 0.0
0.702096631597 3.96656725638 0.0
0.246204062466 3.82734823738 0.0
0.872012730916 3.80079945556 0.0
0.313419524246 3.75328100976 0.0
1.26305184675 3.57725747237 0.0
1.04341944162 3.90846795586 0.0
0.697725469476 3.93030230037 0.0
0.27003033309 3.96477332623 0.0
0.632456188669 3.80120134001 0.0
0.55988813035 3.96676596088 0.0
0.798125231733 3.9668778541 0.0
0.861599835739 3.96514225679 0.0
0.130196681328 3.96566148827 0.0
1.46980331867 3.96566148827 0.0
0.337465698618 3.96873835045 0.0
1.10690030388 3.57445060302 0.0
1.07038768144 3.96631210642 0.0
0.201908835349 3.96783542832 0.0
1.17640357301 3.96795841043 0.0
0.482502283815 3.8454083814 0.0
1.37723451734 3.90442225885 0.0
0.722497886517 3.84543272537 0.0
0.254749007352 3.57960328731 0.0
0.449206209982 3.91785378051 0.0
0.907803563184 3.91575967116 0.0
0.997592319531 3.96832081731 0.0
1.3597087328 3.59165409162 0.0
0.797785363131 3.87112617582 0.0
0.557788209884 3.87112741711 0.0
0.133223775006 3.57024633267 0.0
1.46673023696 3.57019175074 0.0
0.296361477075 3.90524448543 0.0
1.29555045611 3.90092076583 0.0
1.11951450862 3.79592056714 0.0
0.341558640376 3.57546927501 0.0
0.974255514016 3.92370320024 0.0
0.664786082443 3.91707165091 0.0
1.1442561544 3.86460464827 0.0
0.430695849932 3.74774845865 0.0
1.22439218721 3.92431164104 0.0
0.917330800791 3.76752811157 0.0
0.0995806821614 3.83759752714 0.0
1.50041931784 3.83759752714 0.0
0.586492545959 3.6571718064 0.0
1.16809690663 3.90376349956 0.0
0.490525946651 3.9687439861 0.0
0.170108846494 3.77025381333 0.0
0.726723612771 3.96611364881 0.0
1.42998397347 3.77014833166 0.0
1.55978981314 3.82099569701 0.0
0.0402101868575 3.82099569701 0.0
1.10043652243 3.92805072974 0.0
1.34111814411 3.91924529479 0.0
1.27430066613 3.93505265881 0.0
0.56431092584 3.57086686051 0.0
0.930516510487 3.96969091611 0.0
1.17713743504 3.67180033503 0.0
0.801256410508 3.5635758738 0.0
1.37979186382 3.84566323689 0.0
1.02277822921 3.7577258162 0.0
0.252009847995 3.68167957306 0.0
0.0497138210057 3.58866012032 0.0
1.55028617899 3.58866012032 0.0
0.466046622144 3.57331739513 0.0
0.343019074867 3.81481221655 0.0
0.0645235269233 3.96909610548 0.0
1.53547647308 3.96909610548 0.0
0.0310141903995 3.92955737583 0.0
[...]
POINT_DATA 856
VECTORS Displacement float
0.0 0.0 0
0.0 0.0 0
-8.66388941127e-05 0.000405098019333 0
0.000111276988848 0.000413276224101 0
0.0 0.0 0
0.0 0.0 0
0.0 0.0 0
0.0 0.0 0
0.0 0.0 0
0.0 0.0 0
0.0 0.0 0
0.0 0.0 0
0.0 0.0 0
0.0 0.0 0
0.0 0.0 0
0.0 0.0 0
0.0 0.0 0
0.0 0.0 0
0.0 0.0 0
0.0 0.0 0
0.0 0.0 0
0.0 0.0 0
0.0 0.0 0
0.0 0.0 0
0.0 0.0 0
0.0 0.0 0
0.000293312942534 -0.000132668383897 0
0.000496021187847 -0.000100279042116 0
0.000608680362483 -8.813386628e-06 0
0.000622321770183 0.000101848565098 0
0.000577899772636 0.000198780650613 0
0.000496024291993 0.000278491337015 0
0.000393908735456 0.000335037099175 0
0.000292694627447 0.000372405493375 0
0.000195165606944 0.00039393596692 0
0.000107927617181 0.000402381721205 0
3.31404623377e-05 0.000405401849548 0
-3.0797459613e-05 0.000405441768327 0
-8.62981938056e-05 0.00035005383627 0
-8.59138420194e-05 0.000297227163761 0
-8.73063697848e-05 0.000247479751639 0
-9.16246722779e-05 0.000200854110177 0
-0.000100150919696 0.000156793754892 0
-0.000113939279723 0.00011294538929 0
-0.000133772789752 7.06245878138e-05 0
-0.000160101182557 2.48296876804e-05 0
-0.000194087979048 -2.28803682291e-05 0
-0.000234169975099 -7.73016762202e-05 0
-0.000283055809452 -0.00013603852597 0
-0.000339481569899 -0.000205631397106 0
-0.000406209481568 -0.000284722384395 0
-0.0004809425925 -0.000377210403638 0
-0.000562116462942 -0.000484429934246 0
-0.000656148174321 -0.00060736228162 0
-0.000756207199495 -0.00074883249133 0
-0.000863369120783 -0.000914600682045 0
-0.000982667273161 -0.00110618044467 0
-0.00111625629761 -0.00132334950692 0
-0.00125412895586 -0.00157752324483 0
-0.00140855606922 -0.00186850895627 0
-0.00156345488667 -0.00220300925399 0
-0.0017256621855 -0.00259026655964 0
-0.00190482502183 -0.00302507111356 0
-0.00208527063663 -0.003528204385 0
-0.00228751894714 -0.00410765871682 0
-0.0024832998334 -0.00477705681018 0
-0.00270239211712 -0.00556609543627 0
-0.0029006522709 -0.00648896117366 0
-0.00311402566399 -0.00757482997059 0
-0.00333325955244 -0.00894796088047 0
-0.00345569305914 -0.0106774484533 0
-0.00336235024973 -0.0133063165644 0
-0.00295002902217 -0.0161243142626 0
-0.00239497027637 -0.0183993846286 0
-0.0018242349594 -0.0201599043669 0
-0.00118834477674 -0.0214077565758 0
-0.000552298213333 -0.0221534995843 0
7.12622990763e-05 -0.0223990411624 0
0.000657583269913 -0.022157676997 0
0.00129128734393 -0.0214145674915 0
0.00187080106208 -0.0201642072348 0
0.00249844391987 -0.0184117479089 0
0.00302399015064 -0.0161351398601 0
0.00341419073457 -0.0133153094323 0
0.0035161229164 -0.0106943728021 0
0.00334044124663 -0.00893082778107 0
0.00316306062405 -0.00759044195968 0
0.00293455351055 -0.00648141408183 0
0.00272156778176 -0.00555613436862 0
0.00251313931622 -0.00477728289504 0
0.00231737547255 -0.0041094992917 0
0.00211947791653 -0.00352461435477 0
0.00193756333618 -0.00301673350426 0
0.00175175511589 -0.0025775154488 0
0.0015852401208 -0.00219588847301 0
0.0014248509083 -0.00186683859391 0
0.00128104512559 -0.00157538141574 0
0.00114028416456 -0.00132269781131 0
0.0010066794131 -0.0011041388454 0
0.000888414791615 -0.000912765592379 0
0.000777563451823 -0.000749351679879 0
0.000677349684142 -0.000605714485723 0
0.000584379261063 -0.000483219615024 0
0.00050343649801 -0.000375797091119 0
0.000428965314344 -0.000284841671782 0
0.000364901119127 -0.000204134666737 0
0.000307890088435 -0.000135038897264 0
0.000258230508636 -7.52229437181e-05 0
0.000218366525201 -2.05966680527e-05 0
0.000184599127955 2.73867437071e-05 0
0.00015837127176 7.41104805187e-05 0
0.000138441486866 0.000117161953759 0
0.000124708891893 0.000161572023056 0
0.000116222412547 0.000206294510057 0
0.000111928387055 0.000253602141443 0
0.00011054587237 0.000304037621608 0
0.000110934511433 0.00035755003629 0
5.47468929204e-05 0.000413621785171 0
-9.94570820633e-06 0.000413587105282 0
-8.55594668389e-05 0.000410579253139 0
-0.000173710309073 0.000402162192081 0
-0.000272272244791 0.000380697808519 0
-0.000374730104902 0.000343423285174 0
-0.000478317640325 0.000286970888102 0
-0.000562136059389 0.000207332886871 0
-0.000609038517082 0.000110209845115 0
-0.00059836219189 -1.21702105499e-06 0
-0.000488721503405 -9.4140998343e-05 0
-0.000288946952501 -0.000128602385085 0
-0.000858731865113 -0.000210879407032 0
0.000880904955793 -0.000210727651423 0
-0.00160456789589 -0.00221949066675 0
-0.00101198680198 -0.00732814779691 0
0.00175453767912 -0.00541799539172 0
0.00107947922011 -0.00152075575819 0
-0.000321482591247 0.000100766076491 0
0.000341346252758 9.68046408171e-05 0
-0.000631585158904 -0.00088835063542 0
-0.00155771926937 -0.00584945111419 0
0.000798373452785 -0.0116664635081 0
0.00108512056361 -0.00413278272267 0
-0.000294220383869 -0.000185226051255 0
0.000315337515139 -0.000189701971446 0
-0.00034480669892 -0.00221081383896 0
-0.00126229760325 -0.0119541366174 0
0.00124975021311 -0.00879131818202 0
0.000166854889748 -0.000732683482103 0
6.94777131678e-05 -0.00227701739121 0
-5.80354405078e-05 -0.00424033937253 0
-0.000136318744441 -0.0165319800676 0
-9.46692658555e-05 0.00022650521477 0
0.000116914193878 0.000220752938186 0
0.000695767633783 3.57005443193e-05 0
-0.00068102749065 3.91259881991e-05 0
5.73378725375e-05 -0.000592675323907 0
0.0015777546716 -0.00175735260508 0
-5.61446228938e-05 -1.34954553669e-05 0
7.11894867727e-05 -1.33307431664e-05 0
-0.000463260424935 -0.00790462317084 0
0.000850194096226 -0.0148116743811 0
0.000709878477053 -0.00612527376048 0
-0.001728425595 -0.00407803974717 0
0.000237340144111 -0.00135199914173 0
-0.00125268755661 -0.000803157469674 0
-3.4399468478e-05 -0.00584783349112 0
0.00127007285276 -0.000734156764985 0
-0.000295079371188 -0.00136330038009 0
-9.07357740253e-05 -0.000364921119848 0
-3.32385912347e-05 0.000109392799583 0
5.57788041867e-05 0.000105862736784 0
0.00172923788421 -0.00285365998223 0
-0.000494523811338 -0.00367956105913 0
0.000110011137585 -0.000274799717553 0
0.000884718648122 -0.000597428922444 0
-0.0005111719593 -0.011427833006 0
-0.00129053113441 -0.0034792860957 0
-0.000693173799685 -8.46419568096e-05 0
0.000695691507717 -8.77216102304e-05 0
0.00108841724376 -0.00272494204224 0
-0.00134238689762 -0.00136373956982 0
-0.000410576711245 -0.00344459809703 0
0.000610856177966 -0.00267583374551 0
-0.000406385892511 -0.0161678558964 0
-0.000565598492078 -3.7170738749e-05 0
0.000593681711409 -5.08345983013e-05 0
0.000191785824164 -0.0111857637306 0
-0.000331367715871 0.000221110505466 0
0.000351345102089 0.000215026942194 0
-0.000334363963246 -0.000756777921612 0
-0.000744415652721 -0.000415368018763 0
-0.00100616919721 -0.000341931051093 0
-0.00107859159981 -0.000614190235709 0
0.0002649960629 -0.0180600834262 0
0.00064631517098 -0.00596834641113 0
0.000181620087085 -0.0111795372392 0
-8.37800706999e-05 -0.000161945457399 0
0.00170315591407 -0.00802891096119 0
-0.00103953945235 -0.00173881914486 0
-0.00158214742457 -0.00843919131327 0
0.000453601223612 -0.000955151873688 0
0.000517601429447 -0.00127990076707 0
-0.000687745402022 -0.00192036617658 0
0.000162825001149 -0.000135393836003 0
-0.00104650269387 -0.00224914347839 0
0.00160750361908 -0.00627291694649 0
0.00102108538061 -0.00253639483621 0
0.000641790645516 1.10072746702e-05 0
-0.000633090902137 1.47885376218e-05 0
0.00110515537916 -0.00375599520031 0
0.000838461096312 -0.00196267943425 0
1.11444202762e-05 -0.0192633502971 0
0.000562187106543 0.000147800839202 0
-0.000544972981984 0.000153534769513 0
-0.000943196334824 -0.00802124243113 0
0.000361948667605 -0.000503047866372 0
0.000981230271628 -0.00030099062076 0
-0.000906789019786 -0.00266327426317 0
0.00154219627331 -0.00154953550861 0
-1.33934193282e-05 -0.0153141885552 0
7.19418879889e-05 2.45216071651e-05 0
-6.71614992257e-05 1.5230479238e-05 0
1.67133958906e-06 0.00029691761333 0
2.16396560034e-05 0.000290190994676 0
0.000488578051046 -0.000458104565223 0
0.000635326631607 -0.000204816752229 0
0.00141463490492 -0.0110667089803 0
0.000252185855635 -0.00931074939719 0
-0.00178060811757 -0.0042071403901 0
0.00172000414831 -0.00306127747964 0
-0.000453096836437 -0.00141538941488 0
0.00106436262128 -0.000658407719652 0
-0.00146874469562 -0.00878808101817 0
2.75323159965e-05 0.000189187644222 0
-4.04421539477e-06 0.000184069378154 0
0.000429688633498 -0.0029677786908 0
-0.000325832647092 -3.64519229541e-06 0
0.000345245902388 -4.88324314241e-06 0
-0.000347014249998 -0.000433456602824 0
0.00101282915298 -0.00810458500655 0
-0.00119422349319 -0.00446264534175 0
-0.00122717767645 -0.00496367853559 0
-0.00151040456038 -0.00133790663739 0
-0.00026141349851 -0.000281877454453 0
0.0011978029995 -0.0016010219223 0
-0.000528684576846 7.96875760204e-05 0
0.000547277829663 7.55663017617e-05 0
-0.000368704652137 -0.000495537778502 0
-0.000624535785456 -0.00111547229355 0
-0.000135146492426 -0.000931932588036 0
0.000737013631418 -0.00136958363096 0
-0.000129879813484 -8.02133557249e-05 0
0.00121925884708 -0.000973520122925 0
-0.00108246933784 -0.000988424809635 0
-0.000847612775921 -0.00584778693654 0
0.000585851092531 -0.0145684820135 0
-0.000787973969065 -6.93311691926e-05 0
0.000799333156019 -6.94156704056e-05 0
0.000426858188214 -0.00321986164493 0
0.00162101222382 -0.0040524070474 0
-0.000179745519619 0.000158467201287 0
0.000201093649669 0.000153769197615 0
0.00062014526276 -0.000842800251031 0
0.00131388653112 -0.00476995906651 0
-0.00170752991423 -0.00244100855717 0
0.00108176911773 -0.000493307788009 0
-0.000266118556306 -0.00592602371958 0
0.00114436529317 -0.00611947860193 0
-0.00164584066465 -0.00605439543315 0
-7.51992643051e-05 -0.000120960325447 0
0.000661924888051 7.92040816687e-05 0
-0.000648625698034 8.47035967929e-05 0
-0.000161718523015 6.58901010185e-05 0
0.000190363745343 6.41776583322e-05 0
-0.000229672159389 -0.00316672649406 0
-0.000760276836162 -0.0145925744173 0
-0.000197475416909 0.000284598589981 0
0.000218745700788 0.000277816802409 0
0.000379517749097 -0.0147667543371 0
-0.000572684621423 -0.000179462093952 0
0.00112239698398 -0.00890829781771 0
-0.00101539190981 -0.000479655045928 0
0.000723986049332 -0.000291536288193 0
0.000375146739847 -0.0044872259452 0
-0.000799197444243 -0.0128925900104 0
0.000274479177636 -0.000292726726625 0
-0.00178339133403 -0.00614968916091 0
0.00133177129314 -0.00467313958426 0
5.56184686278e-05 -0.0200916737326 0
-7.5440145625e-05 -0.0178353330843 0
5.17929083728e-05 0.000104818659231 0
-2.8228351903e-05 0.000100947249153 0
0.0005064627707 -0.000683259707612 0
0.000923707198182 -0.000772575641491 0
-0.00120844937168 -0.00370436805762 0
0.00014778160203 -5.97136975582e-05 0
-0.000813092582844 -0.00155953698185 0
-0.00100836466307 -0.00241796596068 0
0.000166468817506 -9.90803341059e-05 0
-0.00124197065101 -0.0106001614082 0
-0.000578172139857 -0.000149790288287 0
9.19078323713e-05 -0.00188836570872 0
0.00110316413995 -0.0119607753632 0
-0.00137374954304 -0.00649806615957 0
0.000623956519746 -0.000146494341485 0
-2.41048237407e-05 -0.0134626767984 0
-0.00103545113799 -0.0044070388913 0
-0.000376889625505 -2.70865526396e-05 0
0.000381843393211 -2.84450358042e-05 0
-0.000102097621171 -0.000388011128148 0
0.000154975276386 -0.000429142917007 0
0.00143589084919 -0.0022566551025 0
-0.000714684733463 -0.000297045528662 0
0.000476044499825 -0.00766042946209 0
-0.000950483694534 -0.0100722828726 0
0.00070595875752 -0.00197143732402 0
-0.00142001340582 -0.00139724964094 0
-0.00011600859482 -0.000965194228876 0
0.00150640710678 -0.00670804778119 0
-0.000429052193924 0.000137788590185 0
0.000447914341525 0.000133080725648 0
-0.00149029761403 -0.00253304673317 0
0.000136205455277 -0.00162179643831 0
0.00114901485403 -0.00271999766345 0
-0.000681297472956 -1.02039850738e-05 0
0.000214027756695 -0.0170342459157 0
0.000697797580414 -1.33177281282e-05 0
0.000476911555048 0.000215945874436 0
-0.000458625477856 0.000222731089553 0
-0.000234898522334 -0.00287470694959 0
5.42689661227e-05 -0.000224043403267 0
-0.000151815379326 -0.000571875244859 0
-0.000896321148405 -0.00102165259977 0
-0.00087870824312 -0.0114142231831 0
0.00141119869546 -0.00104091882687 0
3.50798345435e-06 -0.00150200863737 0
0.000476354934454 -9.49582331521e-05 0
0.00183859498664 -0.00394291050071 0
-0.000908525163694 -0.000215012498213 0
-0.000393652859503 -3.00043932296e-05 0
0.00039881164608 -3.30954132242e-05 0
-0.000906546590652 -0.000647302289372 0
-0.000822233910386 -0.000667273148275 0
2.93805706838e-05 0.000244216163714 0
-5.7944506585e-06 0.000238243700777 0
-9.82867573112e-05 0.000320884806988 0
0.000120537602376 0.0003137522011 0
-0.000531270040306 -0.0015918103805 0
-0.000311364844654 -0.000609355446726 0
-0.00119676935904 -0.000627982112984 0
-0.00165685380622 -0.0030366365312 0
-0.000541750870379 -0.00883100148087 0
0.000519813102993 -0.00164445568075 0
0.000876932305826 -0.000357545444663 0
-0.000438358026702 4.04489783644e-05 0
-0.000590693394436 -0.000784952391871 0
0.000457556266166 4.36838134992e-05 0
0.00103646545434 -0.000975359853448 0
0.00166441949519 -0.00796310202945 0
-0.00122450790682 -0.00235647221866 0
0.000138172092157 -0.0116310624677 0
-0.00149060509196 -0.00449262170894 0
-0.000229224171523 -0.000197951258956 0
-6.9519477187e-05 0.000168001038676 0
9.19268940264e-05 0.000163236761943 0
0.00158397677873 -0.00670366115144 0
0.00131292829708 -0.0099486868014 0
0.00135777733598 -0.00337418367104 0
-0.000183974875491 0.000217804579104 0
0.000205348830978 0.000212118455173 0
-0.000712553870874 5.61532528951e-06 0
0.000723954404399 2.48497158499e-06 0
-0.000376396243139 -0.0207094273908 0
0.00107619575765 -0.0132189400427 0
0.000744095335979 -0.00112475133471 0
3.41758648391e-05 0.000338488454617 0
-1.04767573596e-05 0.000331225089624 0
0.00179850423224 -0.00619817109643 0
-0.00117630987782 -0.00737311334468 0
-0.000392163219854 -0.000401340173265 0
-0.000352821126144 -8.61349201982e-05 0
0.00170138565766 -0.00213632087973 0
-4.68569324093e-05 6.07900307162e-05 0
7.66047482615e-05 -0.00123910076696 0
7.94571982347e-05 5.32624625407e-05 0
0.00100874943586 -0.00165744973182 0
0.00141215572649 -0.00987394622343 0
-0.000463032581522 -0.00228142427621 0
-0.00170629835573 -0.00743667563718 0
0.000777810060505 -0.00125498824145 0
-0.000814281733105 -0.00126583066475 0
-0.000178956588473 -5.01014719896e-05 0
0.000902540037497 -0.000182177265184 0
-0.000147162810483 -3.63948551228e-05 0
-0.000838995854162 -0.00305808407717 0
-0.00087309827248 -0.0125965788967 0
-0.0013784594241 -0.00227459041663 0
0.000303935710401 -0.000225879858403 0
-3.91263368822e-05 -0.00519586345206 0
0.000237381690141 -0.0168759076943 0
-0.00120531944078 -0.0088285405136 0
0.00017207632802 -0.000788506026447 0
0.000863012132768 -0.0125036053801 0
-0.00150162807308 -0.0100327318003 0
-0.000291582439474 0.000280965106824 0
0.000311908292143 0.00027398045668 0
-0.000344653468166 -0.00460138030219 0
0.00162820555139 -0.00415195125877 0
0.000428010775811 -6.94364665342e-05 0
-0.00053159697525 -0.000623717073824 0
0.000418000107456 -0.000397425734876 0
-0.000696116613119 -0.000126104058686 0
-9.87611659946e-05 -0.000207154757838 0
-0.00179894567571 -0.00322382351812 0
-0.000693102716148 -0.00188948758335 0
-0.000461121929006 -0.000274194071988 0
-0.000400831827705 -6.51897906363e-05 0
0.00128716580962 -0.00234266477239 0
0.00151649589818 -0.00319418941737 0
0.000611928607879 -0.0195021779442 0
0.000543246949386 -0.00250844669712 0
-0.000311003551481 0.00016504308691 0
0.000331349587237 0.000160063552159 0
0.000640467185831 3.49912772763e-05 0
-0.000630124707539 4.02970875541e-05 0
0.000727618388214 -0.000132607943813 0
-6.52574371107e-05 -0.00752079589865 0
-0.00181596992816 -0.00968005850547 0
0.000112746821899 6.16241405862e-05 0
-9.09745719996e-05 5.64034356331e-05 0
-0.00112499982441 -0.000528512496302 0
0.000653014056626 -0.00088419182221 0
-0.00130193526693 -0.013856280984 0
-3.10891131271e-05 -8.52358164099e-05 0
0.000370452590496 -0.00326210333228 0
-0.000546757773502 -0.0161557617226 0
-0.00145127220038 -0.00319707570553 0
7.99898427506e-05 0.000143025345115 0
-5.60835363392e-05 0.000138598834291 0
-0.000206078935687 -0.00185850059211 0
0.000729019006354 -0.00038559997831 0
0.00158530798457 -0.00553252695394 0
0.00146398272251 -0.00276386980781 0
0.00106257214074 -0.000458168415505 0
0.00034283777133 -0.000971155337551 0
-0.00170790943869 -0.00432382847878 0
-0.00131852544563 -0.00106245570144 0
0.000226643635819 -0.000271913463176 0
0.000580495215734 -0.00434073387246 0
-5.15710309801e-05 -0.0182870471487 0
5.25363481578e-05 -6.45784888777e-05 0
-0.000910180236539 -0.0142311054003 0
9.18260152188e-05 -0.00038309858168 0
0.000458210101962 -0.000283361623657 0
0.000277901136061 -0.00491806508602 0
0.00079734805963 -9.46710045241e-05 0
-0.000534200195848 -0.000625949415545 0
-0.000845315527302 -0.00568099426073 0
0.00134407657445 -0.00519054822817 0
-0.00163811848593 -0.0019250811917 0
0.000122290702176 -0.00235370544825 0
-0.000729071681233 -0.000987998261921 0
0.000214495003932 -3.42712164653e-05 0
-0.000780051513671 -9.06075310511e-05 0
0.000828617859331 -0.00470521550159 0
-0.00109791699844 -0.00194145700977 0
-0.000835286609968 -0.00308237793958 0
0.000551153939689 0.000192594948428 0
-0.000534194150509 0.000199706941743 0
0.000734277654997 -0.00933649651828 0
0.000891202307513 -0.00321588856736 0
0.000552429741216 -0.00158074458043 0
0.00141630103333 -0.00142408860563 0
-0.000801153774656 -0.000176566830152 0
0.000227014936928 -0.000115805904002 0
-0.000600913345078 -0.000307005438688 0
0.000440857863175 -0.016931519108 0
0.000322688426651 -0.00717313290543 0
-3.36301222352e-05 -0.00932056437438 0
0.000519060983911 -0.000581445823946 0
-5.19338755321e-05 -0.00152001449759 0
9.28651575402e-06 0.000142346616633 0
0.000276968609199 -0.000618600273045 0
1.39383804744e-05 0.000137996318236 0
0.000428646681146 -0.000680232242595 0
0.00176800755602 -0.00423389823584 0
0.000242919132262 -0.0206443385087 0
-0.000218090859118 -0.00690408288326 0
-0.000769227221423 -0.000277343891729 0
-0.00147611246571 -0.00332926005881 0
0.00178060683877 -0.0052089322621 0
0.000789386296894 -0.00155599528493 0
0.000817339762421 -0.00113465940857 0
-0.000992849683113 -0.00424908310864 0
0.000600367360968 -0.0131379166991 0
0.000235475185618 -0.00108183967579 0
-4.40058895421e-05 -2.853935537e-05 0
-0.00109327994371 -0.000719742632017 0
-0.000882091704634 -0.0177264329957 0
-0.000991217854054 -0.000323711109368 0
0.000616576043107 -0.000313879432289 0
6.07088575298e-05 -0.000175775552641 0
3.30400299277e-05 7.36165990714e-05 0
-8.16486855896e-06 5.95203918821e-05 0
0.0010829167805 -0.0074076025936 0
6.53844646181e-05 0.000284484931606 0
-4.13391295781e-05 0.000277939594072 0
-0.00190445275603 -0.0074625245538 0
0.000164972789414 -2.75020193268e-05 0
-0.000605238530517 9.09727427044e-05 0
0.000621739672283 8.66046093475e-05 0
0.0013906383069 -0.0010663967362 0
-0.000850647550585 -0.00319939093921 0
-7.47958246774e-05 -0.000738011736274 0
0.00024706027855 -0.000377861746971 0
0.000698895587795 -0.0101456510259 0
-0.000475528939639 -0.000875089755844 0
0.000602366119238 -0.00547656842417 0
-0.00131287462598 -0.0102781297474 0
-0.00173542565178 -0.00535987818187 0
-0.000561332926485 -0.00377102551659 0
-0.000431323098707 -0.0146103187324 0
-3.09354175361e-05 0.000351050663397 0
5.38987406527e-05 0.000343599675978 0
-0.0013819830754 -0.00170497561545 0
-0.0003782402486 -0.000959478319353 0
-0.000133393611945 0.000113062582326 0
0.00212629028926 -0.00814133626918 0
0.000155863716315 0.000109288414311 0
-0.000235737541608 -0.000366606959973 0
0.000656119270304 -0.0157165904127 0
-0.00134484359711 -0.000932466818506 0
-0.0018246678649 -0.00490619266261 0
0.00119015945451 -0.000681490156804 0
-0.000373149052107 -0.00652698596087 0
-2.72471380803e-05 0.000250936682824 0
5.02174383443e-05 0.00024484964832 0
0.00109546907358 -0.000671095357263 0
0.00066128057545 -2.67231911799e-05 0
-0.000654975193912 -2.4293311808e-05 0
-9.99005427397e-05 -0.000242913227555 0