# vtk DataFile Version 2.0
Generated with Solid Solver
ASCII
DATASET UNSTRUCTURED_GRID
POINTS 856 float 
0.0 3.5 0.0
1.6 3.5 0.0
1.6 4.0 0.0
0.0 4.0 0.0
0.0695652173912 3.5 0.0
0.139130434782 3.5 0.0
0.208695652174 3.5 0.0
0.278260869565 3.5 0.0
0.347826086956 3.5 0.0
0.417391304347 3.5 0.0
0.486956521738 3.5 0.0
0.556521739129 3.5 0.0
0.62608695652 3.5 0.0
0.695652173911 3.5 0.0
0.765217391302 3.5 0.0
0.834782608694 3.5 0.0
0.904347826085 3.5 0.0
0.973913043477 3.5 0.0
1.04347826087 3.5 0.0
1.11304347826 3.5 0.0
1.18260869565 3.5 0.0
1.25217391304 3.5 0.0
1.32173913043 3.5 0.0
1.39130434783 3.5 0.0
1.46086956522 3.5 0.0
1.53043478261 3.5 0.0
1.6 3.56430812594 0.0
1.6 3.62270835268 0.0
1.6 3.6757434324 0.0
1.6 3.7239062376 0.0
1.6 3.76764438351 0.0
1.6 3.80736436404 0.0
1.6 3.84343531219 0.0
1.6 3.87619247117 0.0
1.6 3.90594026707 0.0
1.6 3.93295517284 0.0
1.6 3.95748825478 0.0
1.6 3.97976750982 0.0
1.58000000587 4.0 0.0
1.55999996633 4.0 0.0
1.54000002214 4.0 0.0
1.51999997198 4.0 0.0
1.50000000455 4.0 0.0
1.48000000216 4.0 0.0
1.45999997931 4.0 0.0
1.44000002484 4.0 0.0
1.41999997044 4.0 0.0
1.40000002096 4.0 0.0
1.37999999963 4.0 0.0
1.35999999626 4.0 0.0
1.34000002179 4.0 0.0
1.31999997343 4.0 0.0
1.3000000318 4.0 0.0
1.27999998783 4.0 0.0
1.26000000202 4.0 0.0
1.24000001295 4.0 0.0
1.21999998074 4.0 0.0
1.20000003685 4.0 0.0
1.17999998163 4.0 0.0
1.16000001473 4.0 0.0
1.14000000469 4.0 0.0
1.11999999139 4.0 0.0
1.10000003625 4.0 0.0
1.07999997877 4.0 0.0
1.06000002802 4.0 0.0
1.04000000338 4.0 0.0
1.02000000764 4.0 0.0
1.00000002986 4.0 0.0
0.979999980237 4.0 0.0
0.960000035522 4.0 0.0
0.939999990881 4.0 0.0
0.920000014619 4.0 0.0
0.900000017903 4.0 0.0
0.879999986222 4.0 0.0
0.860000037278 4.0 0.0
0.839999982352 4.0 0.0
0.820000022783 4.0 0.0
0.800000000002 4.0 0.0
0.779999977222 4.0 0.0
0.760000017652 4.0 0.0
0.739999962726 4.0 0.0
0.720000013782 4.0 0.0
0.699999982101 4.0 0.0
0.679999985385 4.0 0.0
0.660000009123 4.0 0.0
0.639999964482 4.0 0.0
0.620000019766 4.0 0.0
0.599999970141 4.0 0.0
0.57999999236 4.0 0.0
0.559999996622 4.0 0.0
0.539999971983 4.0 0.0
0.520000021235 4.0 0.0
0.499999963756 4.0 0.0
0.480000008612 4.0 0.0
0.459999995315 4.0 0.0
0.439999985272 4.0 0.0
0.420000018371 4.0 0.0
0.39999996315 4.0 0.0
0.380000019261 4.0 0.0
0.359999987052 4.0 0.0
0.339999997986 4.0 0.0
0.320000012172 4.0 0.0
0.299999968206 4.0 0.0
0.280000026575 4.0 0.0
0.259999978213 4.0 0.0
0.240000003742 4.0 0.0
0.220000000371 4.0 0.0
0.199999979041 4.0 0.0
0.180000029557 4.0 0.0
0.159999975162 4.0 0.0
0.140000020694 4.0 0.0
0.119999997846 4.0 0.0
0.0999999954514 4.0 0.0
0.0800000280232 4.0 0.0
0.0599999778571 4.0 0.0
0.0400000336732 4.0 0.0
0.0199999941324 4.0 0.0
0.0 3.97976750982 0.0
0.0 3.95748825478 0.0
0.0 3.93295517284 0.0
0.0 3.90594026707 0.0
0.0 3.87619247117 0.0
0.0 3.84343531219 0.0
0.0 3.80736436404 0.0
0.0 3.76764438351 0.0
0.0 3.7239062376 0.0
0.0 3.6757434324 0.0
0.0 3.62270835268 0.0
0.0 3.56430812594 0.0
0.249757905714 3.75212552678 0.0
1.35000000902 3.74954526597 0.0
0.488714190926 3.75947467509 0.0
0.727445026698 3.75983525744 0.0
0.962900270309 3.76055270856 0.0
1.17161197633 3.81755162829 0.0
0.130754031542 3.86878251069 0.0
1.46924596846 3.86878251069 0.0
0.369913852535 3.84868154079 0.0
0.603236233099 3.84763103091 0.0
0.843402107212 3.84736931152 0.0
1.05041705507 3.86611282467 0.0
0.250539323282 3.87785527135 0.0
1.34882231626 3.87787871523 0.0
0.468661896861 3.89189320321 0.0
0.704258117309 3.89639128976 0.0
0.94963922804 3.89654080835 0.0
1.25000000748 3.89875296068 0.0
1.12879020517 3.91059303421 0.0
0.548928478218 3.91905583534 0.0
0.7889268651 3.91906062813 0.0
0.0712526194949 3.93011432704 0.0
1.52874738051 3.93011432704 0.0
1.4740071133 3.74293106904 0.0
0.125992886699 3.74293106904 0.0
0.329956761073 3.92118145982 0.0
1.09412206522 3.66725831207 0.0
0.190000004299 3.92542384899 0.0
1.41098423528 3.92728100222 0.0
0.629999992124 3.92414139091 0.0
0.87000001175 3.92414140592 0.0
0.853391941071 3.71944243214 0.0
0.610032822379 3.72536074396 0.0
0.41090315692 3.92892991009 0.0
0.370435019193 3.7251305208 0.0
1.01000001875 3.93130199947 0.0
1.22823348571 3.68694249365 0.0
1.18894423177 3.93487447818 0.0
1.31063576122 3.93502724255 0.0
0.129927636183 3.94112156482 0.0
1.47007236382 3.94112156482 0.0
1.07646504896 3.76194504855 0.0
1.07000000339 3.94017719684 0.0
0.270000002394 3.93875928556 0.0
1.26759839792 3.80243333593 0.0
0.770332946246 3.83880063275 0.0
0.530342720064 3.83880306325 0.0
0.189898092614 3.63474333735 0.0
1.4101772205 3.6313147556 0.0
0.942883893479 3.62966700486 0.0
0.510631148905 3.62429064243 0.0
0.754670889573 3.63369080225 0.0
0.489999986184 3.94463854908 0.0
0.732500655853 3.9452729887 0.0
0.193627936713 3.81528931126 0.0
1.40183871842 3.81461096917 0.0
0.928721275957 3.94715071018 0.0
0.0604617896557 3.86281267064 0.0
1.53953821034 3.86281267065 0.0
1.25036152032 3.94913766834 0.0
0.30096552553 3.81141484704 0.0
0.297089357677 3.66359682597 0.0
0.394212311705 3.61316974741 0.0
0.831051681923 3.94633984116 0.0
0.592085081305 3.94901138542 0.0
0.669405291514 3.95495209798 0.0
1.3611855791 3.94637621082 0.0
0.928496698914 3.82436133158 0.0
0.444093171593 3.8271987226 0.0
0.683378885111 3.8234871366 0.0
0.372430737197 3.95235208784 0.0
1.19348789949 3.87019408468 0.0
1.15124363553 3.95467023547 0.0
0.229287653728 3.96038323295 0.0
0.646635519079 3.61231195482 0.0
0.986819459779 3.84973028271 0.0
1.11214815433 3.84770266014 0.0
1.50610225987 3.6604664246 0.0
0.0938977401332 3.6604664246 0.0
0.531976760298 3.96138656711 0.0
0.451361041931 3.96112773652 0.0
0.771976835888 3.96138886125 0.0
1.53311213884 3.79435404356 0.0
0.066887861162 3.79435404356 0.0
0.970836553066 3.9620233382 0.0
0.311702426505 3.96111572975 0.0
1.31698094247 3.6658628839 0.0
1.11177843379 3.95948388532 0.0
1.15003411964 3.72957279566 0.0
0.890058924798 3.96133576813 0.0
0.169108880648 3.96040269401 0.0
1.42850737314 3.96465656678 0.0
0.0426347993992 3.9610175717 0.0
1.5573652006 3.9610175717 0.0
1.28993057938 3.85776473604 0.0
1.34652710411 3.82072629166 0.0
0.897316840472 3.87585124602 0.0
0.814484972147 3.79171515708 0.0
0.573290986674 3.7879873938 0.0
1.02164717476 3.69631051635 0.0
0.41798215839 3.87594988344 0.0
1.18469655214 3.6045863568 0.0
0.657426542805 3.87734841349 0.0
0.0893439701605 3.9657484063 0.0
1.51065602984 3.9657484063 0.0
0.850202761783 3.61862953305 0.0
0.185775988195 3.86980628439 0.0
1.41422401181 3.86980628439 0.0
0.305957202498 3.87340573583 0.0
0.629999992124 3.96272981278 0.0
0.686026569054 3.68766751472 0.0
1.03220081924 3.96436031967 0.0
0.445441337222 3.69456289967 0.0
1.33308537187 3.96770341358 0.0
1.0249206042 3.60512275769 0.0
0.128645746764 3.81165411571 0.0
1.47135425324 3.81165411571 0.0
1.29077706219 3.96625078806 0.0
1.21302440104 3.96491551313 0.0
0.373320303365 3.89968789902 0.0
0.409457647309 3.96502881891 0.0
1.39076199588 3.96614348387 0.0
1.2156032112 3.76624353786 0.0
0.383301616321 3.78976397621 0.0
0.593246012246 3.8948346816 0.0
0.833004203108 3.89475034107 0.0
0.187583903859 3.70688411961 0.0
1.41241609614 3.70688411961 0.0
1.08573330585 3.89673930733 0.0
1.04303343403 3.81530385578 0.0
0.103644791029 3.90516202075 0.0
1.49635520897 3.90516202075 0.0
1.23586605501 3.85112068621 0.0
0.921814270996 3.70213058021 0.0
0.532219762185 3.7029333087 0.0
1.28217045716 3.7375098981 0.0
0.779621693208 3.70806977531 0.0
0.998890529268 3.88397615296 0.0
0.659406618131 3.76469373474 0.0
0.230043799244 3.91599372373 0.0
1.53690667654 3.72637971331 0.0
0.0630933234627 3.72637971331 0.0
0.153148105836 3.90639761309 0.0
1.4478092366 3.90500627713 0.0
0.512139854501 3.90538519137 0.0
0.750930702019 3.90340708 0.0
0.0409150717909 3.90046251393 0.0
1.55908492821 3.90046251393 0.0
0.702096631597 3.96656725638 0.0
0.246204062466 3.82734823738 0.0
0.872012730916 3.80079945556 0.0
0.313419524246 3.75328100976 0.0
1.26305184675 3.57725747237 0.0
1.04341944162 3.90846795586 0.0
0.697725469476 3.93030230037 0.0
0.27003033309 3.96477332623 0.0
0.632456188669 3.80120134001 0.0
0.55988813035 3.96676596088 0.0
0.798125231733 3.9668778541 0.0
0.861599835739 3.96514225679 0.0
0.130196681328 3.96566148827 0.0
1.46980331867 3.96566148827 0.0
0.337465698618 3.96873835045 0.0
1.10690030388 3.57445060302 0.0
1.07038768144 3.96631210642 0.0
0.201908835349 3.96783542832 0.0
1.17640357301 3.96795841043 0.0
0.482502283815 3.8454083814 0.0
1.37723451734 3.90442225885 0.0
0.722497886517 3.84543272537 0.0
0.254749007352 3.57960328731 0.0
0.449206209982 3.91785378051 0.0
0.907803563184 3.91575967116 0.0
0.997592319531 3.96832081731 0.0
1.3597087328 3.59165409162 0.0
0.797785363131 3.87112617582 0.0
0.557788209884 3.87112741711 0.0
0.133223775006 3.57024633267 0.0
1.46673023696 3.57019175074 0.0
0.296361477075 3.90524448543 0.0
1.29555045611 3.90092076583 0.0
1.11951450862 3.79592056714 0.0
0.341558640376 3.57546927501 0.0
0.974255514016 3.92370320024 0.0
0.664786082443 3.91707165091 0.0
1.1442561544 3.86460464827 0.0
0.430695849932 3.74774845865 0.0
1.22439218721 3.92431164104 0.0
0.917330800791 3.76752811157 0.0
0.0995806821614 3.83759752714 0.0
1.50041931784 3.83759752714 0.0
0.586492545959 3.6571718064 0.0
1.16809690663 3.90376349956 0.0
0.490525946651 3.9687439861 0.0
0.170108846494 3.77025381333 0.0
0.726723612771 3.96611364881 0.0
1.42998397347 3.77014833166 0.0
1.55978981314 3.82099569701 0.0
0.0402101868575 3.82099569701 0.0
1.10043652243 3.92805072974 0.0
1.34111814411 3.91924529479 0.0
1.27430066613 3.93505265881 0.0
0.56431092584 3.57086686051 0.0
0.930516510487 3.96969091611 0.0
1.17713743504 3.67180033503 0.0
0.801256410508 3.5635758738 0.0
1.37979186382 3.84566323689 0.0
1.02277822921 3.7577258162 0.0
0.252009847995 3.68167957306 0.0
0.0497138210057 3.58866012032 0.0
1.55028617899 3.58866012032 0.0
0.466046622144 3.57331739513 0.0
0.343019074867 3.81481221655 0.0
0.0645235269233 3.96909610548 0.0
1.53547647308 3.96909610548 0.0
0.0310141903995 3.92955737583 0.0
[...]
POINT_DATA 856
VECTORS Displacement float
0.0 0.0 0
0.0 0.0 0
-9.99123146414e-05 0.000451751448747 0
0.000122640105125 0.000459065740011 0
0.0 0.0 0
0.0 0.0 0
0.0 0.0 0
0.0 0.0 0
0.0 0.0 0
0.0 0.0 0
0.0 0.0 0
0.0 0.0 0
0.0 0.0 0
0.0 0.0 0
0.0 0.0 0
0.0 0.0 0
0.0 0.0 0
0.0 0.0 0
0.0 0.0 0
0.0 0.0 0
0.0 0.0 0
0.0 0.0 0
0.0 0.0 0
0.0 0.0 0
0.0 0.0 0
0.0 0.0 0
0.00033167630984 -0.000151347702811 0
0.000560627957011 -0.000116025334413 0
0.000687876087337 -1.38082780428e-05 0
0.000703346419535 0.000110319969123 0
0.000653196983512 0.000219227583742 0
0.000560686419724 0.000308928628959 0
0.000445164730944 0.000372626873292 0
0.000330578602926 0.000414783761413 0
0.000220044176281 0.000439113380054 0
0.000121088694489 0.00044867714156 0
3.61769213731e-05 0.000452101741949 0
-3.64595633385e-05 0.000452150161711 0
-9.95171635802e-05 0.000389208730525 0
-9.90852824992e-05 0.00032917355085 0
-0.00010067240728 0.000272599983695 0
-0.000105578311097 0.000219523119851 0
-0.000115240673668 0.000169295445826 0
-0.000130836576735 0.000119256988064 0
-0.000153256713526 7.08697758584e-05 0
-0.00018297564237 1.84966984783e-05 0
-0.000221322616725 -3.61263720812e-05 0
-0.000266500708315 -9.83982762853e-05 0
-0.00032158094794 -0.000165644985884 0
-0.000385104265996 -0.000245234619257 0
-0.000460196519076 -0.000335663291824 0
-0.000544236349402 -0.000441348944022 0
-0.000635434010794 -0.00056376818706 0
-0.00074107350579 -0.000704118274876 0
-0.000853371001372 -0.000865556377974 0
-0.000973519994688 -0.00105460827819 0
-0.00110722134905 -0.00127303904689 0
-0.00125693051881 -0.00152071230725 0
-0.00141121348842 -0.00181046771801 0
-0.00158406539337 -0.00214238364352 0
-0.0017570618495 -0.00252402466391 0
-0.001937942986 -0.0029660944136 0
-0.00213780931513 -0.00346318211659 0
-0.00233847612131 -0.00403893336927 0
-0.00256368435818 -0.0047039413231 0
-0.00278007120372 -0.00547361655105 0
-0.00302269628753 -0.00638637305736 0
-0.0032377652931 -0.00746042498928 0
-0.00346420745568 -0.00873874296079 0
-0.00367893694707 -0.0103900054159 0
-0.0037184157114 -0.012601475013 0
-0.00343882073047 -0.0156830345096 0
-0.00296707536701 -0.0182498405753 0
-0.00237856695916 -0.020337076195 0
-0.00180512235481 -0.0219551307854 0
-0.00117462018661 -0.0231055038356 0
-0.000548220054432 -0.0237910724893 0
6.4764644637e-05 -0.0240151300448 0
0.000644731038239 -0.0237964823806 0
0.0012695250831 -0.0231096165056 0
0.00184581939572 -0.021959147287 0
0.00247362126393 -0.0203497978656 0
0.00302592431583 -0.0182607321495 0
0.00350054343526 -0.0156957631433 0
0.00378947012628 -0.0126085734914 0
0.00369136539902 -0.0103635414945 0
0.00351806171247 -0.00875683226921 0
0.00326960447804 -0.00744868232888 0
0.00303573463064 -0.00637153203637 0
0.00280617263328 -0.0054716777479 0
0.00258984450739 -0.00470419836553 0
0.00237005278196 -0.00403338510584 0
0.00216800953997 -0.00345237048496 0
0.00196076611987 -0.00295046746267 0
0.00177516137823 -0.00251506630999 0
0.00159608139736 -0.00213972953718 0
0.00143553486302 -0.0018075502664 0
0.00127814194689 -0.00151953900979 0
0.00112854825833 -0.00127043309585 0
0.000996121545237 -0.00105234042011 0
0.000871915581969 -0.000866026832081 0
0.000759515284194 -0.000702249009587 0
0.000655188694627 -0.000562497293354 0
0.000564324208842 -0.000439925682091 0
0.000480631013527 -0.000336052991563 0
0.000408612010266 -0.000243910102465 0
0.000344455063187 -0.000164963517821 0
0.000288539590828 -9.6612076413e-05 0
0.000243629869781 -3.42172537562e-05 0
0.00020554459359 2.06044102172e-05 0
0.000175947269772 7.39009511571e-05 0
0.000153422384604 0.000122984559855 0
0.000137889658704 0.000173522161789 0
0.000128269495427 0.000224356266024 0
0.000123387348559 0.000278055410205 0
0.000121808697958 0.000335253693959 0
0.000122243455219 0.000395908175728 0
5.85661862507e-05 0.000459465976251 0
-1.47495508259e-05 0.000459421024637 0
-0.000100400349899 0.000456006903612 0
-0.000200163188513 0.000446471547368 0
-0.000311605951903 0.000422216423067 0
-0.000427292564129 0.000380175675978 0
-0.000544126051967 0.00031661224406 0
-0.000638416488582 0.000227049946345 0
-0.000690893369617 0.000118031596435 0
-0.000678226553729 -6.77579111277e-06 0
-0.000553780825853 -0.000110352251477 0
-0.00032750496486 -0.000147569365128 0
-0.000971101189763 -0.000249237433466 0
0.000993134801473 -0.000248593473108 0
-0.00179833339239 -0.00252149456891 0
-0.00109960214895 -0.00812350705532 0
0.00192785789135 -0.00606595384495 0
0.00121870465702 -0.00174207229891 0
-0.000367337861227 0.000104546785616 0
0.000385740060075 0.000101017539573 0
-0.000720531187024 -0.00102499548698 0
-0.0017398915298 -0.00662351748388 0
0.000836704156078 -0.012853507211 0
0.00123286878865 -0.00471247574132 0
-0.000337943048739 -0.000223146355413 0
0.000357535946287 -0.00022783953024 0
-0.0004083773326 -0.0025325368017 0
-0.00132743474145 -0.0133286446624 0
0.00138162497671 -0.00995920792055 0
0.000193239194687 -0.000848451455851 0
9.515138649e-05 -0.00260971479287 0
-0.000107126650731 -0.00485143020763 0
-0.000131776337226 -0.0180012494834 0
-0.000110790029855 0.000247392216735 0
0.000131358719988 0.000242267073333 0
0.0007856153108 3.3905140845e-05 0
-0.000771656376752 3.69638781792e-05 0
5.59339913294e-05 -0.000688706260081 0
0.00175575881305 -0.00198413996644 0
-6.81081749483e-05 -2.65958521398e-05 0
8.04511125354e-05 -2.57159129616e-05 0
-0.000572912500175 -0.00904378038073 0
0.0008391035788 -0.0163570101177 0
0.000770736644805 -0.00678568530243 0
-0.00190992617209 -0.00457246462328 0
0.000253041038498 -0.00155454680755 0
-0.00140962977048 -0.000920442822565 0
1.77861381291e-05 -0.00670215227483 0
0.00142467901832 -0.000839385651434 0
-0.000323709234214 -0.00156764982126 0
-0.000100506678254 -0.000428293282149 0
-4.15116103492e-05 0.000114030526032 0
6.23007978727e-05 0.000111015839682 0
0.0019295988616 -0.00323308175545 0
-0.000524689110404 -0.00421318492006 0
0.000118020508427 -0.000325497148498 0
0.000998595319638 -0.00069169410159 0
-0.000538677810306 -0.0125822228704 0
-0.00145941144651 -0.00396121608511 0
-0.000782460384769 -0.000100386461914 0
0.00078392687002 -0.00010341333613 0
0.00119747032144 -0.00303617228716 0
-0.0014939234121 -0.00153641027866 0
-0.000451179328753 -0.00381911612242 0
0.000661771184476 -0.00306435389495 0
-0.000367970581744 -0.0178159903038 0
-0.000642565895217 -5.25691455158e-05 0
0.000670731227058 -6.75790896782e-05 0
0.000246946490513 -0.012793747644 0
-0.000378357683231 0.000241708195142 0
0.000396957000192 0.000236259084705 0
-0.000373346393571 -0.000875667028062 0
-0.000844482997755 -0.000484656197355 0
-0.00113263713319 -0.000394040892327 0
-0.00120794282877 -0.0006977378823 0
0.000231834836592 -0.0196244957563 0
0.000655341131979 -0.00684770483316 0
0.000136532845289 -0.0128190503398 0
-9.42385818384e-05 -0.00019594699002 0
0.00184901515338 -0.00897591154641 0
-0.0011789071762 -0.00199028013031 0
-0.00171676109382 -0.00941416421308 0
0.000501261905308 -0.00110181218697 0
0.000591014922748 -0.00147184938825 0
-0.000763164326468 -0.00220267810619 0
0.000179169162937 -0.000165866427298 0
-0.00115386867222 -0.00250726358402 0
0.00178580504558 -0.00709860799004 0
0.00115780144593 -0.00289832661127 0
0.000724554408122 8.41227054755e-06 0
-0.000716441342944 1.19457504185e-05 0
0.00120853487328 -0.00429974623715 0
0.000927730483592 -0.00225019790502 0
4.01873651001e-05 -0.0208548357589 0
0.000635278004487 0.000160809285999 0
-0.000619110553094 0.000165997863628 0
-0.000949077413695 -0.00925173667658 0
0.000401640275675 -0.000585926623799 0
0.00110340684388 -0.000347474046537 0
-0.00100373937269 -0.003050791342 0
0.00172648956885 -0.00176347984703 0
-6.96223678437e-05 -0.0171197520998 0
7.73138787713e-05 1.70804256153e-05 0
-7.68675750391e-05 7.23477257153e-06 0
-1.62357751265e-06 0.00032721495196 0
2.31538045764e-05 0.000321208550022 0
0.000553986796476 -0.000534527065989 0
0.000717947679129 -0.000244225104136 0
0.00149840217104 -0.0123276780344 0
0.000267990344844 -0.0102726810225 0
-0.00198311574767 -0.0047526825419 0
0.00190366281145 -0.00343831363096 0
-0.000523906022458 -0.0016260865606 0
0.00118923893716 -0.00074647124755 0
-0.00161332606965 -0.00990164404321 0
2.75980264881e-05 0.00020492541659 0
-5.90935160257e-06 0.00020038862824 0
0.000470265891793 -0.00329164582551 0
-0.000372626869749 -1.50668558947e-05 0
0.000390469552814 -1.58213518649e-05 0
-0.000398823719518 -0.000506856236304 0
0.00101861051946 -0.00934529593199 0
-0.00131097083731 -0.0049643948413 0
-0.00133605734358 -0.0056903195158 0
-0.00169093750879 -0.00151994115232 0
-0.000294967180688 -0.000332960717313 0
0.00132548823459 -0.00179373519181 0
-0.00060079532529 8.1395829953e-05 0
0.000618348851192 7.76504503263e-05 0
-0.000414795743219 -0.000577133911203 0
-0.00069936721142 -0.0012845580222 0
-0.000163701033039 -0.00107576083234 0
0.000818756512854 -0.00157395923297 0
-0.000147379673304 -0.000102132632182 0
0.00137167159524 -0.00111693128388 0
-0.00122340565238 -0.00113559407327 0
-0.000983223673277 -0.00667213346079 0
0.00059017331041 -0.0159605016899 0
-0.000890879445514 -8.57668236708e-05 0
0.000901421153415 -8.53919453859e-05 0
0.000502752150308 -0.00368371499311 0
0.0018121972965 -0.00459680731503 0
-0.000207143998143 0.000170100723195 0
0.000226900188154 0.000165931895976 0
0.000703623972353 -0.000973230000961 0
0.00143929622943 -0.00530936138368 0
-0.00190082733011 -0.00275403545696 0
0.00121749668016 -0.000569839335238 0
-0.000291186680656 -0.0065591545112 0
0.0012963927976 -0.00696803386803 0
-0.00180439013079 -0.00676036688588 0
-9.03531834122e-05 -0.000149647575256 0
0.000747746766291 8.43582573964e-05 0
-0.00073524514747 8.94086716489e-05 0
-0.000187079411027 6.43532505984e-05 0
0.000215035061808 6.32913359711e-05 0
-0.000287654595455 -0.00362314552774 0
-0.000766542048286 -0.0160238524525 0
-0.000227072206413 0.000313428658677 0
0.00024679145637 0.000307363106413 0
0.000431754286975 -0.0166463398721 0
-0.000651097710358 -0.000215762049562 0
0.00120540627792 -0.00986898279668 0
-0.00114653372969 -0.000555281562881 0
0.000811484755248 -0.000332144738005 0
0.000455817178155 -0.00513270608696 0
-0.000828537909944 -0.0144697603979 0
0.000304453812535 -0.000345656916693 0
-0.00196606117019 -0.00690323958412 0
0.00145179905476 -0.00535288118698 0
5.45004787465e-05 -0.0216615980583 0
-0.000135521449259 -0.019545677846 0
5.48927326839e-05 0.000108837498158 0
-3.31321158046e-05 0.000105438363408 0
0.000563923676276 -0.000791389235487 0
0.00102739093431 -0.000870190463206 0
-0.0013339385623 -0.00424174531007 0
0.000162797609618 -7.920930018e-05 0
-0.000909200968627 -0.00179083694394 0
-0.00114723253455 -0.00276267584261 0
0.000188848498868 -0.000124073701166 0
-0.0013202027081 -0.0117474320514 0
-0.000650882772034 -0.000172063313241 0
8.42290777363e-05 -0.00216598576742 0
0.00115965610811 -0.0134245662419 0
-0.00146975945835 -0.00747043191839 0
0.000701943940876 -0.000168608282594 0
-2.50688189242e-05 -0.0147568463099 0
-0.00118292545742 -0.0050232097476 0
-0.000425687459258 -3.2732088449e-05 0
0.000430597740158 -3.40212569161e-05 0
-0.00012261531363 -0.000455081530118 0
0.000177895279382 -0.00050190900994 0
0.00161295482019 -0.00257147160048 0
-0.000801670575287 -0.000338297069971 0
0.00057957461524 -0.00876660010783 0
-0.0010521234464 -0.0114206391047 0
0.0008054313042 -0.00225863165969 0
-0.00159582666941 -0.00159402204987 0
-0.00012450346628 -0.00111372413049 0
0.00164098333321 -0.00747064899131 0
-0.00048857555448 0.000147280868422 0
0.000506159911982 0.000143082599307 0
-0.00164983378493 -0.00283973721943 0
0.000164752258992 -0.00186223155801 0
0.00127199857124 -0.00311416846225 0
-0.000772183178704 -2.04287451324e-05 0
0.000278372414637 -0.0188021090756 0
0.000787814459738 -2.32913879668e-05 0
0.000538997994088 0.000237885052035 0
-0.000521905301687 0.000244007383663 0
-0.000241208463582 -0.00329247123532 0
6.26889471447e-05 -0.000267237877455 0
-0.000168024812574 -0.00066477363013 0
-0.00099365402066 -0.00114499629143 0
-0.00086828062394 -0.0132128079213 0
0.00157849558786 -0.00118349077468 0
3.28930540225e-06 -0.00166579465201 0
0.000538715564596 -0.000118875284959 0
0.00203870665036 -0.00444146635622 0
-0.00102473387233 -0.000250860240342 0
-0.000445596302811 -3.65347049089e-05 0
0.000450505546521 -3.94097416279e-05 0
-0.00101083595066 -0.00073022783471 0
-0.000932665326946 -0.0007719873339 0
2.97547535714e-05 0.000267425728252 0
-7.97723145333e-06 0.000262105122214 0
-0.000114835006098 0.000354434375509 0
0.000135418081268 0.000348058186825 0
-0.000584877053341 -0.00176894641313 0
-0.000359771540318 -0.000707579481872 0
-0.0013440189979 -0.000717809794905 0
-0.00185572082375 -0.00344501726035 0
-0.000584509383525 -0.00975474257559 0
0.000570951898514 -0.00182728737969 0
0.000989009406235 -0.000417298209673 0
-0.000499256197407 3.58313959636e-05 0
-0.000664214150376 -0.000907324791169 0
0.000517141299892 4.03899560197e-05 0
0.00116888342556 -0.00112151873934 0
0.00182147671367 -0.00896038083312 0
-0.00136878728908 -0.00269978657166 0
0.000143087314242 -0.0127908763381 0
-0.00167581013401 -0.00510200597463 0
-0.000259275918572 -0.000236870045523 0
-8.24239495327e-05 0.000180849394101 0
0.000103127098811 0.000176634398676 0
0.00169393276697 -0.00770887323406 0
0.0013127304477 -0.0115561016007 0
0.00152906205678 -0.00384251604946 0
-0.000211845180071 0.000237618054161 0
0.000231644153725 0.000232552224884 0
-0.000806360155231 1.48803866349e-07 0
0.0008170715671 -2.71463214191e-06 0
-0.000399632660141 -0.0223433714537 0
0.00110424498802 -0.0145967740972 0
0.000829320861701 -0.00129465071418 0
3.52315539706e-05 0.000374324961509 0
-1.3351189512e-05 0.00036783465963 0
0.00197597110041 -0.00695529847045 0
-0.00132907829268 -0.00837915042903 0
-0.00044249609169 -0.000469329723773 0
-0.000403447191383 -0.000109543438995 0
0.00189658791347 -0.00241862806705 0
-5.71524799815e-05 5.84782609761e-05 0
9.50870121724e-05 -0.00142620827433 0
8.94245841807e-05 5.07083019135e-05 0
0.00112442110248 -0.0019017081193 0
0.00150777556641 -0.0109663538437 0
-0.000505173281304 -0.0026148852116 0
-0.00187263667621 -0.00835119854205 0
0.00085790894194 -0.00140040879992 0
-0.000926610236378 -0.00145413284581 0
-0.000207148156849 -6.85168017606e-05 0
0.00101674826795 -0.000213902170724 0
-0.000167505445653 -5.17920383395e-05 0
-0.000963210817332 -0.00349330334077 0
-0.000908296202084 -0.0138756355817 0
-0.00155345271677 -0.00259296289062 0
0.000338693555643 -0.00026907000827 0
-9.62286604847e-05 -0.00594790965422 0
0.000227117926612 -0.0183612966876 0
-0.00130087006267 -0.00978518419878 0
0.000184022298255 -0.000912082833348 0
0.000874779315192 -0.0143979791623 0
-0.00161523679562 -0.0111988818461 0
-0.000333418497216 0.000309467080447 0
0.000352314358342 0.000303203814773 0
-0.000343906799879 -0.00527023131563 0
0.00179254122475 -0.00464276727564 0
0.000482074023853 -8.03306712972e-05 0
-0.000607183340738 -0.000723547890882 0
0.000466509340549 -0.000465016662984 0
-0.000789232736686 -0.000153764705739 0
-0.000117592065862 -0.000248338045007 0
-0.00200207086155 -0.00363737432581 0
-0.000794869996797 -0.00216495446481 0
-0.000526241687706 -0.000324608494978 0
-0.000452080947474 -7.56081065818e-05 0
0.00143361775457 -0.00268308592854 0
0.00168467192979 -0.00365582796226 0
0.000651023397925 -0.0212046789203 0
0.000627351972674 -0.00287155326123 0
-0.000355407501255 0.000177882145392 0
0.000374350686561 0.000173446240765 0
0.000723442665212 3.5391253027e-05 0
-0.000713764512285 4.02972559082e-05 0
0.000821422529218 -0.000160673041593 0
-7.2021166763e-05 -0.00831300173497 0
-0.0018663198092 -0.0112729319948 0
0.00012391352558 5.95729434734e-05 0
-0.000104284862304 5.44946489713e-05 0
-0.00126724888911 -0.000608371423258 0
0.00072832419851 -0.00102043220612 0
-0.00136674994933 -0.0159154578084 0
-3.50553535768e-05 -0.000108091357603 0
0.00038374171722 -0.00373403806056 0
-0.000524606152084 -0.0177029605614 0
-0.00161729356172 -0.00366044480178 0
8.70276649762e-05 0.000152405321168 0
-6.49739333813e-05 0.000148505504236 0
-0.000218821212194 -0.00213247030334 0
0.000823766112928 -0.00045073369637 0
0.00172389110664 -0.0063450110755 0
0.00161622907962 -0.00309198306976 0
0.00119213193683 -0.000524068944054 0
0.000392857639123 -0.00112033327233 0
-0.00189528921124 -0.00495275100905 0
-0.00147199559599 -0.00120218647676 0
0.000257902595792 -0.00032206703579 0
0.000606779467858 -0.00497065303194 0
-4.42583171264e-05 -0.0198194109657 0
5.46326164701e-05 -8.49795965213e-05 0
-0.000914824186254 -0.0157558335176 0
9.655272338e-05 -0.000449335369457 0
0.000519088064381 -0.000334856588368 0
0.00030190313811 -0.00544701612545 0
0.00089953484524 -0.000115820043595 0
-0.000601688400443 -0.000725775090333 0
-0.000923579735583 -0.00629898146476 0
0.00151320077832 -0.00590116309275 0
-0.00182993413845 -0.00218071223545 0
0.000114238090525 -0.00269662800991 0
-0.000819540031981 -0.00113883272034 0
0.000242811862557 -4.97285785346e-05 0
-0.000882795988804 -0.000111766927547 0
0.000904936836933 -0.00522018144435 0
-0.00122910654711 -0.0022261728252 0
-0.000918503398016 -0.0034250597493 0
0.000622907276089 0.000211866674551 0
-0.000607005291966 0.000218326059743 0
0.000841683051419 -0.0106467925192 0
0.00101713953089 -0.00367359629612 0
0.000607229056877 -0.001814986031 0
0.00158965341762 -0.00162601652579 0
-0.000902928062982 -0.000204912491208 0
0.000252380182953 -0.000143260694063 0
-0.000672336989451 -0.000348081510475 0
0.000399196348429 -0.0185379185888 0
0.000279270158713 -0.00824083265152 0
-0.000112560896076 -0.0107012197848 0
0.000579414888513 -0.000675026891393 0
-7.44390804276e-05 -0.0017459778153 0
6.8093567381e-06 0.00015161378517 0
0.000304185947136 -0.000718024292339 0
1.46445773148e-05 0.000147787287913 0
0.000487723567727 -0.000788268427714 0
0.00195776816731 -0.0048473071937 0
0.000254267120948 -0.0222486559217 0
-0.000170732320394 -0.00792892142039 0
-0.000871614000959 -0.000326586379579 0
-0.00162885797627 -0.00371989796356 0
0.00197464990786 -0.00587990351678 0
0.000896367111063 -0.00178499308858 0
0.000925674890167 -0.00130493482399 0
-0.00108096261035 -0.00486740112843 0
0.000612929530202 -0.0147925046509 0
0.000253235670886 -0.00124656407258 0
-5.01760169591e-05 -4.30126980985e-05 0
-0.00123420932244 -0.000828972113397 0
-0.000942331938374 -0.0195618660039 0
-0.00111846648807 -0.000376276973136 0
0.000689546793663 -0.000355752565394 0
6.29994772747e-05 -0.00021230003457 0
3.34624684565e-05 7.31758532078e-05 0
-1.00775807743e-05 5.79356535713e-05 0
0.00117229427348 -0.00821266422587 0
7.05987108319e-05 0.000313098574938 0
-4.84063280099e-05 0.000307258081404 0
-0.0020516289612 -0.00860616541234 0
0.000182635061314 -4.22819590977e-05 0
-0.000686810465415 9.51401766658e-05 0
0.000702359921003 9.12029045099e-05 0
0.0015597986048 -0.00121782307536 0
-0.000933959182306 -0.00366368236133 0
-7.95807518209e-05 -0.000854513025594 0
0.000272475614499 -0.000443106090293 0
0.000742679669229 -0.011197764539 0
-0.000524483192208 -0.000974823319083 0
0.000711445990748 -0.00625923641564 0
-0.00142038284559 -0.0115631900593 0
-0.00192924838064 -0.00605135156766 0
-0.00066037460093 -0.00430943248736 0
-0.000434663682837 -0.0159922368478 0
-3.85510473664e-05 0.000388578485533 0
5.97701078494e-05 0.000381918104914 0
-0.00155599174834 -0.00194575611229 0
-0.000421338908783 -0.00110691148921 0
-0.000154852380609 0.000118258108915 0
0.00227418977228 -0.00941171645393 0
0.000175778209708 0.000114969139052 0
-0.000264950510538 -0.000430003443099 0
0.000640168527803 -0.017211676798 0
-0.00150905153883 -0.00106309542538 0
-0.0020158007287 -0.00550929895108 0
0.00133278510838 -0.000775943279107 0
-0.000474872213646 -0.00746911661277 0
-3.44137225525e-05 0.00027507493573 0
5.56357804349e-05 0.000269647884396 0
0.00123357939232 -0.000773432353271 0
0.000745979739077 -3.43747459877e-05 0
-0.000740378112142 -3.21305460752e-05 0
-0.00011182763174 -0.000288726273164 0
0.000463236470742 -0.0143247693406 0