# vtk DataFile Version 2.0
Generated with Solid Solver
ASCII
DATASET UNSTRUCTURED_GRID
POINTS 856 float 
0.0 3.5 0.0
1.6 3.5 0.0
1.6 4.0 0.0
0.0 4.0 0.0
0.0695652173912 3.5 0.0
0.139130434782 3.5 0.0
0.208695652174 3.5 0.0
0.278260869565 3.5 0.0
0.347826086956 3.5 0.0
0.417391304347 3.5 0.0
0.486956521738 3.5 0.0
0.556521739129 3.5 0.0
0.62608695652 3.5 0.0
0.695652173911 3.5 0.0
0.765217391302 3.5 0.0
0.834782608694 3.5 0.0
0.904347826085 3.5 0.0
0.973913043477 3.5 0.0
1.04347826087 3.5 0.0
1.11304347826 3.5 0.0
1.18260869565 3.5 0.0
1.25217391304 3.5 0.0
1.32173913043 3.5 0.0
1.39130434783 3.5 0.0
1.46086956522 3.5 0.0
1.53043478261 3.5 0.0
1.6 3.56430812594 0.0
1.6 3.62270835268 0.0
1.6 3.6757434324 0.0
1.6 3.7239062376 0.0
1.6 3.76764438351 0.0
1.6 3.80736436404 0.0
1.6 3.84343531219 0.0
1.6 3.87619247117 0.0
1.6 3.90594026707 0.0
1.6 3.93295517284 0.0
1.6 3.95748825478 0.0
1.6 3.97976750982 0.0
1.58000000587 4.0 0.0
1.55999996633 4.0 0.0
1.54000002214 4.0 0.0
1.51999997198 4.0 0.0
1.50000000455 4.0 0.0
1.48000000216 4.0 0.0
1.45999997931 4.0 0.0
1.44000002484 4.0 0.0
1.41999997044 4.0 0.0
1.40000002096 4.0 0.0
1.37999999963 4.0 0.0
1.35999999626 4.0 0.0
1.34000002179 4.0 0.0
1.31999997343 4.0 0.0
1.3000000318 4.0 0.0
1.27999998783 4.0 0.0
1.26000000202 4.0 0.0
1.24000001295 4.0 0.0
1.21999998074 4.0 0.0
1.20000003685 4.0 0.0
1.17999998163 4.0 0.0
1.16000001473 4.0 0.0
1.14000000469 4.0 0.0
1.11999999139 4.0 0.0
1.10000003625 4.0 0.0
1.07999997877 4.0 0.0
1.06000002802 4.0 0.0
1.04000000338 4.0 0.0
1.02000000764 4.0 0.0
1.00000002986 4.0 0.0
0.979999980237 4.0 0.0
0.960000035522 4.0 0.0
0.939999990881 4.0 0.0
0.920000014619 4.0 0.0
0.900000017903 4.0 0.0
0.879999986222 4.0 0.0
0.860000037278 4.0 0.0
0.839999982352 4.0 0.0
0.820000022783 4.0 0.0
0.800000000002 4.0 0.0
0.779999977222 4.0 0.0
0.760000017652 4.0 0.0
0.739999962726 4.0 0.0
0.720000013782 4.0 0.0
0.699999982101 4.0 0.0
0.679999985385 4.0 0.0
0.660000009123 4.0 0.0
0.639999964482 4.0 0.0
0.620000019766 4.0 0.0
0.599999970141 4.0 0.0
0.57999999236 4.0 0.0
0.559999996622 4.0 0.0
0.539999971983 4.0 0.0
0.520000021235 4.0 0.0
0.499999963756 4.0 0.0
0.480000008612 4.0 0.0
0.459999995315 4.0 0.0
0.439999985272 4.0 0.0
0.420000018371 4.0 0.0
0.39999996315 4.0 0.0
0.380000019261 4.0 0.0
0.359999987052 4.0 0.0
0.339999997986 4.0 0.0
0.320000012172 4.0 0.0
0.299999968206 4.0 0.0
0.280000026575 4.0 0.0
0.259999978213 4.0 0.0
0.240000003742 4.0 0.0
0.220000000371 4.0 0.0
0.199999979041 4.0 0.0
0.180000029557 4.0 0.0
0.159999975162 4.0 0.0
0.140000020694 4.0 0.0
0.119999997846 4.0 0.0
0.0999999954514 4.0 0.0
0.0800000280232 4.0 0.0
0.0599999778571 4.0 0.0
0.0400000336732 4.0 0.0
0.0199999941324 4.0 0.0
0.0 3.97976750982 0.0
0.0 3.95748825478 0.0
0.0 3.93295517284 0.0
0.0 3.90594026707 0.0
0.0 3.87619247117 0.0
0.0 3.84343531219 0.0
0.0 3.80736436404 0.0
0.0 3.76764438351 0.0
0.0 3.7239062376 0.0
0.0 3.6757434324 0.0
0.0 3.62270835268 0.0
0.0 3.56430812594 0.0
0.249757905714 3.75212552678 0.0
1.35000000902 3.74954526597 0.0
0.488714190926 3.75947467509 0.0
0.727445026698 3.75983525744 0.0
0.962900270309 3.76055270856 0.0
1.17161197633 3.81755162829 0.0
0.130754031542 3.86878251069 0.0
1.46924596846 3.86878251069 0.0
0.369913852535 3.84868154079 0.0
0.603236233099 3.84763103091 0.0
0.843402107212 3.84736931152 0.0
1.05041705507 3.86611282467 0.0
0.250539323282 3.87785527135 0.0
1.34882231626 3.87787871523 0.0
0.468661896861 3.89189320321 0.0
0.704258117309 3.89639128976 0.0
0.94963922804 3.89654080835 0.0
1.25000000748 3.89875296068 0.0
1.12879020517 3.91059303421 0.0
0.548928478218 3.91905583534 0.0
0.7889268651 3.91906062813 0.0
0.0712526194949 3.93011432704 0.0
1.52874738051 3.93011432704 0.0
1.4740071133 3.74293106904 0.0
0.125992886699 3.74293106904 0.0
0.329956761073 3.92118145982 0.0
1.09412206522 3.66725831207 0.0
0.190000004299 3.92542384899 0.0
1.41098423528 3.92728100222 0.0
0.629999992124 3.92414139091 0.0
0.87000001175 3.92414140592 0.0
0.853391941071 3.71944243214 0.0
0.610032822379 3.72536074396 0.0
0.41090315692 3.92892991009 0.0
0.370435019193 3.7251305208 0.0
1.01000001875 3.93130199947 0.0
1.22823348571 3.68694249365 0.0
1.18894423177 3.93487447818 0.0
1.31063576122 3.93502724255 0.0
0.129927636183 3.94112156482 0.0
1.47007236382 3.94112156482 0.0
1.07646504896 3.76194504855 0.0
1.07000000339 3.94017719684 0.0
0.270000002394 3.93875928556 0.0
1.26759839792 3.80243333593 0.0
0.770332946246 3.83880063275 0.0
0.530342720064 3.83880306325 0.0
0.189898092614 3.63474333735 0.0
1.4101772205 3.6313147556 0.0
0.942883893479 3.62966700486 0.0
0.510631148905 3.62429064243 0.0
0.754670889573 3.63369080225 0.0
0.489999986184 3.94463854908 0.0
0.732500655853 3.9452729887 0.0
0.193627936713 3.81528931126 0.0
1.40183871842 3.81461096917 0.0
0.928721275957 3.94715071018 0.0
0.0604617896557 3.86281267064 0.0
1.53953821034 3.86281267065 0.0
1.25036152032 3.94913766834 0.0
0.30096552553 3.81141484704 0.0
0.297089357677 3.66359682597 0.0
0.394212311705 3.61316974741 0.0
0.831051681923 3.94633984116 0.0
0.592085081305 3.94901138542 0.0
0.669405291514 3.95495209798 0.0
1.3611855791 3.94637621082 0.0
0.928496698914 3.82436133158 0.0
0.444093171593 3.8271987226 0.0
0.683378885111 3.8234871366 0.0
0.372430737197 3.95235208784 0.0
1.19348789949 3.87019408468 0.0
1.15124363553 3.95467023547 0.0
0.229287653728 3.96038323295 0.0
0.646635519079 3.61231195482 0.0
0.986819459779 3.84973028271 0.0
1.11214815433 3.84770266014 0.0
1.50610225987 3.6604664246 0.0
0.0938977401332 3.6604664246 0.0
0.531976760298 3.96138656711 0.0
0.451361041931 3.96112773652 0.0
0.771976835888 3.96138886125 0.0
1.53311213884 3.79435404356 0.0
0.066887861162 3.79435404356 0.0
0.970836553066 3.9620233382 0.0
0.311702426505 3.96111572975 0.0
1.31698094247 3.6658628839 0.0
1.11177843379 3.95948388532 0.0
1.15003411964 3.72957279566 0.0
0.890058924798 3.96133576813 0.0
0.169108880648 3.96040269401 0.0
1.42850737314 3.96465656678 0.0
0.0426347993992 3.9610175717 0.0
1.5573652006 3.9610175717 0.0
1.28993057938 3.85776473604 0.0
1.34652710411 3.82072629166 0.0
0.897316840472 3.87585124602 0.0
0.814484972147 3.79171515708 0.0
0.573290986674 3.7879873938 0.0
1.02164717476 3.69631051635 0.0
0.41798215839 3.87594988344 0.0
1.18469655214 3.6045863568 0.0
0.657426542805 3.87734841349 0.0
0.0893439701605 3.9657484063 0.0
1.51065602984 3.9657484063 0.0
0.850202761783 3.61862953305 0.0
0.185775988195 3.86980628439 0.0
1.41422401181 3.86980628439 0.0
0.305957202498 3.87340573583 0.0
0.629999992124 3.96272981278 0.0
0.686026569054 3.68766751472 0.0
1.03220081924 3.96436031967 0.0
0.445441337222 3.69456289967 0.0
1.33308537187 3.96770341358 0.0
1.0249206042 3.60512275769 0.0
0.128645746764 3.81165411571 0.0
1.47135425324 3.81165411571 0.0
1.29077706219 3.96625078806 0.0
1.21302440104 3.96491551313 0.0
0.373320303365 3.89968789902 0.0
0.409457647309 3.96502881891 0.0
1.39076199588 3.96614348387 0.0
1.2156032112 3.76624353786 0.0
0.383301616321 3.78976397621 0.0
0.593246012246 3.8948346816 0.0
0.833004203108 3.89475034107 0.0
0.187583903859 3.70688411961 0.0
1.41241609614 3.70688411961 0.0
1.08573330585 3.89673930733 0.0
1.04303343403 3.81530385578 0.0
0.103644791029 3.90516202075 0.0
1.49635520897 3.90516202075 0.0
1.23586605501 3.85112068621 0.0
0.921814270996 3.70213058021 0.0
0.532219762185 3.7029333087 0.0
1.28217045716 3.7375098981 0.0
0.779621693208 3.70806977531 0.0
0.998890529268 3.88397615296 0.0
0.659406618131 3.76469373474 0.0
0.230043799244 3.91599372373 0.0
1.53690667654 3.72637971331 0.0
0.0630933234627 3.72637971331 0.0
0.153148105836 3.90639761309 0.0
1.4478092366 3.90500627713 0.0
0.512139854501 3.90538519137 0.0
0.750930702019 3.90340708 0.0
0.0409150717909 3.90046251393 0.0
1.55908492821 3.90046251393 0.0
0.702096631597 3.96656725638 0.0
0.246204062466 3.82734823738 0.0
0.872012730916 3.80079945556 0.0
0.313419524246 3.75328100976 0.0
1.26305184675 3.57725747237 0.0
1.04341944162 3.90846795586 0.0
0.697725469476 3.93030230037 0.0
0.27003033309 3.96477332623 0.0
0.632456188669 3.80120134001 0.0
0.55988813035 3.96676596088 0.0
0.798125231733 3.9668778541 0.0
0.861599835739 3.96514225679 0.0
0.130196681328 3.96566148827 0.0
1.46980331867 3.96566148827 0.0
0.337465698618 3.96873835045 0.0
1.10690030388 3.57445060302 0.0
1.07038768144 3.96631210642 0.0
0.201908835349 3.96783542832 0.0
1.17640357301 3.96795841043 0.0
0.482502283815 3.8454083814 0.0
1.37723451734 3.90442225885 0.0
0.722497886517 3.84543272537 0.0
0.254749007352 3.57960328731 0.0
0.449206209982 3.91785378051 0.0
0.907803563184 3.91575967116 0.0
0.997592319531 3.96832081731 0.0
1.3597087328 3.59165409162 0.0
0.797785363131 3.87112617582 0.0
0.557788209884 3.87112741711 0.0
0.133223775006 3.57024633267 0.0
1.46673023696 3.57019175074 0.0
0.296361477075 3.90524448543 0.0
1.29555045611 3.90092076583 0.0
1.11951450862 3.79592056714 0.0
0.341558640376 3.57546927501 0.0
0.974255514016 3.92370320024 0.0
0.664786082443 3.91707165091 0.0
1.1442561544 3.86460464827 0.0
0.430695849932 3.74774845865 0.0
1.22439218721 3.92431164104 0.0
0.917330800791 3.76752811157 0.0
0.0995806821614 3.83759752714 0.0
1.50041931784 3.83759752714 0.0
0.586492545959 3.6571718064 0.0
1.16809690663 3.90376349956 0.0
0.490525946651 3.9687439861 0.0
0.170108846494 3.77025381333 0.0
0.726723612771 3.96611364881 0.0
1.42998397347 3.77014833166 0.0
1.55978981314 3.82099569701 0.0
0.0402101868575 3.82099569701 0.0
1.10043652243 3.92805072974 0.0
1.34111814411 3.91924529479 0.0
1.27430066613 3.93505265881 0.0
0.56431092584 3.57086686051 0.0
0.930516510487 3.96969091611 0.0
1.17713743504 3.67180033503 0.0
0.801256410508 3.5635758738 0.0
1.37979186382 3.84566323689 0.0
1.02277822921 3.7577258162 0.0
0.252009847995 3.68167957306 0.0
0.0497138210057 3.58866012032 0.0
1.55028617899 3.58866012032 0.0
0.466046622144 3.57331739513 0.0
0.343019074867 3.81481221655 0.0
0.0645235269233 3.96909610548 0.0
1.53547647308 3.96909610548 0.0
0.0310141903995 3.92955737583 0.0
[...]
POINT_DATA 856
VECTORS Displacement float
0.0 0.0 0
0.0 0.0 0
-3.79831145317e-05 0.000213132649865 0
5.68279558836e-05 0.000219600193503 0
0.0 0.0 0
0.0 0.0 0
0.0 0.0 0
0.0 0.0 0
0.0 0.0 0
0.0 0.0 0
0.0 0.0 0
0.0 0.0 0
0.0 0.0 0
0.0 0.0 0
0.0 0.0 0
0.0 0.0 0
0.0 0.0 0
0.0 0.0 0
0.0 0.0 0
0.0 0.0 0
0.0 0.0 0
0.0 0.0 0
0.0 0.0 0
0.0 0.0 0
0.0 0.0 0
0.0 0.0 0
0.00015110700609 -6.72300710961e-05 0
0.00025589344182 -4.95535898043e-05 0
0.00031432074691 -1.55482973086e-06 0
0.000321702784861 5.61437015728e-05 0
0.000299218656518 0.000106526966973 0
0.000257498051582 0.000147826830011 0
0.000205488193168 0.000177063276808 0
0.000153995157545 0.000196326451798 0
0.000104479099716 0.000207389958571 0
6.02719311217e-05 0.000211716717859 0
2.24613684361e-05 0.000213265213303 0
-9.81385778538e-06 0.000213291222805 0
-3.78258690012e-05 0.000185361770691 0
-3.76329633865e-05 0.000158726632615 0
-3.83395312609e-05 0.000133689530662 0
-4.05333604738e-05 0.000110285520021 0
-4.48835744425e-05 8.8248312785e-05 0
-5.19457905301e-05 6.63715906972e-05 0
-6.21153990442e-05 4.53554482697e-05 0
-7.56585712861e-05 2.26192616319e-05 0
-9.31568072838e-05 -1.01047859697e-06 0
-0.00011384052065 -2.80146670273e-05 0
-0.000139088195454 -5.71291957892e-05 0
-0.000168284893312 -9.17310931623e-05 0
-0.000202842548471 -0.000131090902287 0
-0.000241609564249 -0.000177193397791 0
-0.000283808197415 -0.000230754106771 0
-0.000332695904052 -0.0002921803239 0
-0.000384838385524 -0.000362956330389 0
-0.000440814248567 -0.000446014361131 0
-0.000503190521761 -0.000542064403119 0
-0.000573049532051 -0.000650869192473 0
-0.000645401734558 -0.000778340149906 0
-0.00072640033002 -0.00092405903322 0
-0.000808066094992 -0.00109147903295 0
-0.000893897091361 -0.00128504577914 0
-0.000988622298087 -0.00150162421855 0
-0.0010847175844 -0.00175167922 0
-0.00119214001572 -0.00203784484618 0
-0.00129774480159 -0.00236704905924 0
-0.00141538527528 -0.00275026147132 0
-0.00152580193014 -0.0031931567556 0
-0.00164684819775 -0.00370461566638 0
-0.00177631288856 -0.00432554482976 0
-0.00188628211084 -0.0050678064862 0
-0.00201794191808 -0.0060268418415 0
-0.00205768558823 -0.0072624154815 0
-0.00186614234634 -0.00933600010218 0
-0.00147918817896 -0.0111277736845 0
-0.000999614731211 -0.0123951845219 0
-0.000476543171149 -0.0131504200724 0
5.61925531588e-05 -0.0133991574937 0
0.000561627797172 -0.0131537880422 0
0.0010908751497 -0.0124012205891 0
0.00153402169431 -0.0111328578319 0
0.00193717254462 -0.00934449734405 0
0.00210528946569 -0.00727759632223 0
0.00203725370203 -0.00601020092602 0
0.00191730645038 -0.00506689390674 0
0.00178923626022 -0.00431779141447 0
0.00167758555711 -0.0037050724555 0
0.00155097179637 -0.00318591273239 0
0.00143434049566 -0.00274288938295 0
0.00132113983861 -0.00236455707344 0
0.00121551988728 -0.00203658674164 0
0.0011098909423 -0.00174791187881 0
0.0010128015306 -0.00149579323852 0
0.000914581337055 -0.00127717739985 0
0.000826435805066 -0.00108650765105 0
0.000741872872816 -0.00092200325207 0
0.000666030797887 -0.000775995440398 0
0.000592072606711 -0.000649432356364 0
0.000522098729218 -0.000539956071371 0
0.000460168818838 -0.00044405970614 0
0.000402216983506 -0.000362269586901 0
0.000349946895893 -0.000290391532328 0
0.000301515044382 -0.000229186454007 0
0.000259386242908 -0.000175533632168 0
0.000220729365886 -0.00013021222892 0
0.000187497514758 -8.99750404743e-05 0
0.000157997680947 -5.56010603732e-05 0
0.000132336112257 -2.58618032575e-05 0
0.000111761490958 1.32023784291e-06 0
9.43805536605e-05 2.51717095531e-05 0
8.08961176402e-05 4.8487491148e-05 0
7.06863248894e-05 6.99901199399e-05 0
6.36624178185e-05 9.22761145652e-05 0
5.93425591988e-05 0.000114782954564 0
5.71693222488e-05 0.000138674523403 0
5.64726180364e-05 0.000164206470562 0
5.66698238435e-05 0.000191337074982 0
2.81624035737e-05 0.000219759685088 0
-4.65656344147e-06 0.000219739394851 0
-4.30661173245e-05 0.000218203722278 0
-8.79444056652e-05 0.000213903028078 0
-0.0001382301813 0.000202888647826 0
-0.000190658712104 0.000183685228483 0
-0.000243780254117 0.000154494213887 0
-0.000286951725011 0.000113206784485 0
-0.000311264084447 6.26456433994e-05 0
-0.000306089414887 4.37717432851e-06 0
-0.000250042393536 -4.46946289605e-05 0
-0.000147697015943 -6.40006154824e-05 0
-0.000441473545915 -9.61308901049e-05 0
0.000457114026605 -9.70932710312e-05 0
-0.000840204513718 -0.00112245483314 0
-0.00057440592887 -0.00394639683762 0
0.000964121703848 -0.0028436259671 0
0.000557445475041 -0.000755112238612 0
-0.000163238319838 6.14758650334e-05 0
0.00017868210389 5.80866145224e-05 0
-0.000318614190566 -0.00043199277536 0
-0.000814096617389 -0.00297441188036 0
0.000494437925662 -0.00637675378343 0
0.000547616185021 -0.00207290040065 0
-0.000147746638765 -7.9780969668e-05 0
0.000164128830209 -8.30758861277e-05 0
-0.000157793156608 -0.00109501516936 0
-0.00075581811526 -0.00627519318448 0
0.000651686575321 -0.0044502476664 0
8.42866336136e-05 -0.000353929935816 0
2.07343103889e-05 -0.00112877338058 0
1.68235698918e-05 -0.00210633099533 0
-0.00011039150341 -0.00935090674725 0
-4.75966918841e-05 0.000124861394702 0
6.47253429602e-05 0.000120151913554 0
0.000360265193804 2.47240426981e-05 0
-0.000348876958419 2.76508315191e-05 0
3.58819646425e-05 -0.000282673574876 0
0.000841944254289 -0.000904590768498 0
-2.69054553985e-05 5.37856555897e-06 0
4.04510212406e-05 4.27456604306e-06 0
-0.000159231161493 -0.00390846265342 0
0.000594379792072 -0.00794902493127 0
0.000403027321505 -0.00330824996824 0
-0.000937889197789 -0.00213195703506 0
0.000135151349056 -0.000663004048433 0
-0.000650515082992 -0.000397450097482 0
-8.24717641082e-05 -0.00289777304839 0
0.000665327457445 -0.000366354204183 0
-0.000157879164787 -0.00067005949472 0
-4.46974853319e-05 -0.000170133981694 0
-1.60144815101e-05 6.62163549882e-05 0
3.33922398711e-05 6.30141951732e-05 0
0.000915545477778 -0.00145529649348 0
-0.000287417896231 -0.00182799414002 0
5.99360335664e-05 -0.000124280326754 0
0.000458101218748 -0.000288931183268 0
-0.000316053298597 -0.0062613304433 0
-0.000658839375121 -0.00174893261397 0
-0.000357491387564 -3.82375046417e-05 0
0.000360905654279 -4.05431904579e-05 0
0.000597793026801 -0.00145101961915 0
-0.000716082284119 -0.000704963699321 0
-0.000226860185701 -0.0018578621176 0
0.000341408959408 -0.00132577742742 0
-0.000331637102711 -0.00866595521809 0
-0.000288692703532 -7.65705284178e-06 0
0.000307924614414 -1.55492966222e-05 0
-8.61066248468e-06 -0.00547406868772 0
-0.00016845146457 0.000121577017347 0
0.000183873516259 0.000116646430533 0
-0.000172208155065 -0.000366037271046 0
-0.000380355879369 -0.000196114374616 0
-0.000522133429011 -0.000166798006918 0
-0.000566449947182 -0.000310761675196 0
0.000253781231673 -0.0102501069615 0
0.000414346999357 -0.00294607439397 0
0.000255220324571 -0.0054161150054 0
-3.9384859128e-05 -6.93175265782e-05 0
0.000959482159173 -0.00421980398473 0
-0.000529583104082 -0.000863038798728 0
-0.000894531015154 -0.00445671898221 0
0.000241424212836 -0.000464284331668 0
0.000262108413911 -0.000629387443658 0
-0.000363729898487 -0.000949518876549 0
8.53001793624e-05 -5.52411605799e-05 0
-0.000572114151238 -0.00119558619008 0
0.000852092811238 -0.00319826019761 0
0.000520985325949 -0.00126666787931 0
0.000331869908521 9.50529063737e-06 0
-0.000324829043058 1.24665540856e-05 0
0.000607222860268 -0.00186264148014 0
0.000447895577967 -0.000969249729512 0
-5.53149749052e-05 -0.0110786915958 0
0.000291508610355 8.16546164675e-05 0
-0.000278203253912 8.62707626013e-05 0
-0.000608537363567 -0.00392144287869 0
0.000190080116209 -0.000238288060661 0
0.000511303056311 -0.000146637155407 0
-0.00048355710661 -0.00132112699011 0
0.000811243228504 -0.00078191437152 0
-1.34943764358e-05 -0.00773037037648 0
3.78238977505e-05 2.40310094272e-05 0
-2.9292801575e-05 1.81682603131e-05 0
1.29552716859e-06 0.000160549399453 0
1.65952461607e-05 0.000155133202725 0
0.00025207238696 -0.000217111395426 0
0.000329145716191 -9.16162300149e-05 0
0.000839877740655 -0.00584405684312 0
0.000150556577775 -0.00507875738047 0
-0.0009447243279 -0.00215584143758 0
0.000929844539389 -0.00159602513815 0
-0.000221415501404 -0.000695905371501 0
0.000562650594311 -0.000335442399416 0
-0.000788466512715 -0.0045060163261 0
1.45365233358e-05 0.000106155876544 0
3.47733224132e-06 0.000101890008014 0
0.000238984440749 -0.00159988974694 0
-0.000165056000147 9.93262999978e-06 0
0.000180345003247 8.17999480851e-06 0
-0.000173367808851 -0.000203386736274 0
0.000659634082569 -0.00395332787431 0
-0.00066031320914 -0.0023834700554 0
-0.00067962577206 -0.00245928553946 0
-0.000793717418831 -0.000676882547263 0
-0.000130391798426 -0.000129113299125 0
0.000648240010627 -0.000840633016201 0
-0.000269839061594 4.99353371914e-05 0
0.000284051289493 4.65141263685e-05 0
-0.000186921484135 -0.000235644494362 0
-0.00032296967171 -0.000545974245374 0
-6.01261317137e-05 -0.000452500327805 0
0.000389611347111 -0.000672153312813 0
-6.18332075514e-05 -2.90244908151e-05 0
0.00063472321592 -0.000481633694919 0
-0.000556571745567 -0.0004860152407 0
-0.000396970479341 -0.00291959918904 0
0.000405104476059 -0.00807671372419 0
-0.000405209420314 -2.75254050845e-05 0
0.000414401678945 -2.84084153712e-05 0
0.00019812425802 -0.00160312422119 0
0.000852348294459 -0.00205838774533 0
-9.0831782568e-05 9.05681294514e-05 0
0.000107325311836 8.66214387833e-05 0
0.000318313912817 -0.000410214599376 0
0.000729189279824 -0.00254449456662 0
-0.00090965983747 -0.00125650021921 0
0.000562888800297 -0.000239976337006 0
-0.000148998214523 -0.00320835113671 0
0.000573816863882 -0.00307404243812 0
-0.000910336304081 -0.00319678280726 0
-3.5843020698e-05 -4.78083091315e-05 0
0.000342383468178 4.53805255522e-05 0
-0.000331957059879 4.97342029619e-05 0
-8.1264444627e-05 4.45582050953e-05 0
0.000101544361416 4.23638445472e-05 0
-8.73490487911e-05 -0.00157314866781 0
-0.000521604188298 -0.00802015677248 0
-0.00010002180245 0.000154058528502 0
0.000116423301096 0.000148605979262 0
0.000294384799977 -0.00726169824047 0
-0.000291791131744 -7.78315630858e-05 0
0.000653879138829 -0.00480146538886 0
-0.000523471829473 -0.000231254645558 0
0.00037992791864 -0.000146715094827 0
0.000156350148954 -0.00223441558352 0
-0.000456755355794 -0.00658686389629 0
0.000143448840221 -0.000133514291437 0
-0.00096905890026 -0.00319923647702 0
0.000736736875275 -0.0023145101343 0
3.86759233914e-05 -0.0117675869886 0
3.72690924223e-05 -0.0096809403553 0
2.71011774586e-05 6.39121902659e-05 0
-9.0439706495e-06 6.05302528865e-05 0
0.000265203062586 -0.000328497884871 0
0.000493656887343 -0.000400125692159 0
-0.000649641595347 -0.00183934917139 0
7.68827914656e-05 -1.77972628642e-05 0
-0.000423154672226 -0.000768742460786 0
-0.000508839305705 -0.00120536091093 0
8.84244212079e-05 -3.80736886822e-05 0
-0.000742014115277 -0.00569318735491 0
-0.000299953691047 -7.36796495289e-05 0
6.60103350226e-05 -0.000932034573973 0
0.000634400443814 -0.00614358653177 0
-0.000786912269077 -0.00320084736549 0
0.000324748742934 -7.19271629288e-05 0
-1.73529766943e-05 -0.00746793520033 0
-0.000512498671801 -0.00220818354751 0
-0.000194062411873 -1.16318690843e-05 0
0.000197709841252 -1.27051259265e-05 0
-4.75002811095e-05 -0.000180498423226 0
8.03263433631e-05 -0.000202037712464 0
0.000748739206579 -0.00113486914101 0
-0.000373938583561 -0.000149310268665 0
0.000177568268731 -0.00379659632916 0
-0.00046757049593 -0.00505797144479 0
0.000356298912565 -0.000978418703764 0
-0.000739319309207 -0.00069940145889 0
-6.2667105654e-05 -0.000470330993171 0
0.000846370172019 -0.00356828240349 0
-0.000218542548523 7.93422318333e-05 0
0.000233161181231 7.54157206004e-05 0
-0.000805795921431 -0.00132593264445 0
6.15856577937e-05 -0.000800287169719 0
0.000614286523238 -0.00134790515103 0
-0.000348942442785 4.29213143765e-06 0
6.74260486475e-05 -0.00895960362853 0
0.000361620590971 1.62601018985e-06 0
0.00024786833543 0.000116379011171 0
-0.000233718631839 0.000121797638736 0
-0.000143494867094 -0.00142733058638 0
3.02935246074e-05 -9.99711229087e-05 0
-7.76292813696e-05 -0.000273408714779 0
-0.000482910751716 -0.000535488358654 0
-0.000668504153134 -0.00544108470198 0
0.000743975966092 -0.000526629092512 0
2.38775558653e-06 -0.000810533945917 0
0.000247343321688 -3.65955758171e-05 0
0.00098781406597 -0.00203902802332 0
-0.000469459569862 -0.000101535682528 0
-0.00020176758252 -1.28360157453e-05 0
0.000205844074879 -1.52651174439e-05 0
-0.000481289776907 -0.000333430847073 0
-0.000419857864574 -0.000322244136189 0
1.53906541674e-05 0.000133900980091 0
2.69631461869e-06 0.000129027291925 0
-4.95035820436e-05 0.000172617623348 0
6.66271298551e-05 0.000166907421503 0
-0.000291678084435 -0.000853673096861 0
-0.000153730501406 -0.000291330608873 0
-0.000624379189895 -0.000312830523428 0
-0.000867908942516 -0.00154046211251 0
-0.000313922608256 -0.00480123809732 0
0.00028663168991 -0.000882532429451 0
0.000454881053998 -0.000169421059858 0
-0.000223141316142 3.12706903173e-05 0
-0.000302260447412 -0.000380530756279 0
0.00023803365303 3.15721196527e-05 0
0.000537022692139 -0.000479897541627 0
0.000911934584138 -0.00411048166584 0
-0.000639855926707 -0.00116799759459 0
8.73476916273e-05 -0.00639621393485 0
-0.000769993954364 -0.00227081187144 0
-0.00011314353991 -8.74740163797e-05 0
-3.46709753791e-05 9.54803172178e-05 0
5.192607271e-05 9.14710623903e-05 0
0.000907696928137 -0.00329401120052 0
0.000875549893034 -0.00477427954791 0
0.000702219746034 -0.00169828350027 0
-9.30858203723e-05 0.00012033538796 0
0.000109577006854 0.000115674304026 0
-0.000365723007457 9.40399720555e-06 0
0.000374757778124 6.80514418172e-06 0
-0.000255909037299 -0.012051210987 0
0.000697331221355 -0.00714559682028 0
0.000390374478182 -0.000549653065915 0
1.77600415272e-05 0.000181638467329 0
4.09374527111e-07 0.000175832855213 0
0.000986117753188 -0.00323078530275 0
-0.000584241892645 -0.00370588267249 0
-0.000197642584781 -0.000188813530386 0
-0.00017850133299 -3.08709669358e-05 0
0.000903848762045 -0.00109190222488 0
-2.26840915974e-05 4.20919538389e-05 0
3.37882920198e-05 -0.000607771119518 0
4.50962403415e-05 3.70689890544e-05 0
0.000530306265073 -0.000816671204512 0
0.000830897736056 -0.00527596583495 0
-0.000253207780243 -0.00113043009148 0
-0.000933289992575 -0.00385878984731 0
0.000424427538341 -0.000665973388161 0
-0.00041224567752 -0.000622586208396 0
-8.9414505593e-05 -1.27475281591e-05 0
0.000468709249842 -8.5001760098e-05 0
-7.00128198473e-05 -7.49184032858e-06 0
-0.000412934238168 -0.00152500102263 0
-0.000554842807742 -0.00687794538128 0
-0.000711975576444 -0.00114036720032 0
0.000157448402906 -0.000100455967961 0
4.05710447995e-05 -0.00257743102715 0
0.000186393535217 -0.00956509390263 0
-0.00069427237633 -0.00475045300437 0
9.63578584671e-05 -0.000380635940115 0
0.000681475228315 -0.00592529511189 0
-0.000860486348614 -0.00527374691042 0
-0.000148104568424 0.000152003802657 0
0.000163794784726 0.000146411296757 0
-0.000224257125245 -0.00228463469836 0
0.000891843339682 -0.002188365707 0
0.000222172075714 -3.3692963731e-05 0
-0.000267968417287 -0.000299033650983 0
0.000217060236206 -0.000185905950487 0
-0.000356316412746 -5.23893714761e-05 0
-4.72052533643e-05 -9.05069076732e-05 0
-0.000958127894771 -0.00165849806156 0
-0.000343961711516 -0.000935387121038 0
-0.000233425950015 -0.000124347066192 0
-0.000207048078326 -3.13012280273e-05 0
0.000678903818968 -0.00115959779432 0
0.000805227358123 -0.00158401821493 0
0.000382129542375 -0.0109255584897 0
0.000266179258101 -0.00124726073109 0
-0.000157981607452 9.3503805125e-05 0
0.000173667757826 8.93677819158e-05 0
0.0003310174627 2.16599802297e-05 0
-0.000322763716628 2.5822810523e-05 0
0.000377149341602 -5.66938487176e-05 0
-3.64806578789e-05 -0.0040844968414 0
-0.00111130147988 -0.00465452846706 0
5.81219750778e-05 4.23572793071e-05 0
-4.09014969117e-05 3.84239292097e-05 0
-0.000582921021624 -0.000258593487326 0
0.000341583222769 -0.000429132618455 0
-0.000965190629213 -0.00647516620295 0
-1.20003848593e-05 -3.1304663421e-05 0
0.000226150387433 -0.00161845098003 0
-0.000425235769035 -0.00889563469435 0
-0.000764438403505 -0.00158732751001 0
4.11922274947e-05 8.29838947908e-05 0
-2.28757980384e-05 7.92035585982e-05 0
-0.000117168386397 -0.000918533383992 0
0.000377198893405 -0.000181954914662 0
0.000880404358094 -0.00273278375175 0
0.00079680689805 -0.00145612832382 0
0.000556400909299 -0.000228367620081 0
0.000173510319153 -0.000473759603894 0
-0.000908693518544 -0.00214495517766 0
-0.000697837433635 -0.000543100222791 0
0.000118089250801 -0.00012377003813 0
0.000350065095862 -0.00215198999474 0
-5.87264893714e-05 -0.0105043301081 0
2.87657030623e-05 -1.99959224219e-05 0
-0.000606140348368 -0.0075827535528 0
5.16664086665e-05 -0.000178128152966 0
0.000237153944331 -0.000129855356444 0
0.000157196591653 -0.00265927311634 0
0.000413351134413 -3.93583166948e-05 0
-0.000271879372899 -0.000301054648583 0
-0.000473518979684 -0.00306050682662 0
0.000690905818397 -0.00261932125645 0
-0.000865234699735 -0.000980945833023 0
8.66524291558e-05 -0.00116515391856 0
-0.00037433839911 -0.000482339208524 0
0.000113339229039 -6.09102407792e-06 0
-0.000400490365215 -3.6281160605e-05 0
0.000463618084379 -0.00253262226274 0
-0.00057128661007 -0.000960291782807 0
-0.000460090191834 -0.00165257639501 0
0.000285732544263 0.000103959303414 0
-0.000272589443871 0.000109590021867 0
0.00032267525302 -0.00464355536729 0
0.0004466988722 -0.00160686664632 0
0.000298446642418 -0.000777813333145 0
0.000740692417986 -0.000712876818782 0
-0.000414609808799 -8.4566696881e-05 0
0.000117379991548 -4.57356559461e-05 0
-0.000316372732048 -0.000156080095848 0
0.00038074562585 -0.00931227639472 0
0.000269242296888 -0.00352693804844 0
0.000110417954331 -0.00456102220168 0
0.000270255952177 -0.000277802415071 0
-1.20131675128e-05 -0.00074752359472 0
5.41597173583e-06 8.26618558657e-05 0
0.000148187127313 -0.000295825039555 0
1.24055604086e-05 7.89347651915e-05 0
0.000219785100475 -0.000328104809037 0
0.000945976411773 -0.00209844408997 0
0.000160010307277 -0.012091174178 0
-0.000200668844712 -0.00340499192424 0
-0.000394010867739 -0.000127720877075 0
-0.000804805217052 -0.00175785938271 0
0.000953524318994 -0.00267608695724 0
0.000402969685862 -0.00076984131236 0
0.000419999706262 -0.000557944881925 0
-0.000549421035203 -0.0021085207411 0
0.0003209790316 -0.00661708975973 0
0.000131556353086 -0.000527562979346 0
-1.80291989323e-05 -3.37383024046e-06 0
-0.000563728472868 -0.0003516507724 0
-0.000548037033927 -0.00923809940328 0
-0.00051175814799 -0.0001544034804 0
0.000325260686318 -0.000159993666734 0
3.3932077882e-05 -7.50413596334e-05 0
1.77940786222e-05 4.84241564582e-05 0
7.86608045757e-07 4.0105668546e-05 0
0.000618771307059 -0.00398903868792 0
3.36019324875e-05 0.000154282205682 0
-1.51845853985e-05 0.000148994884804 0
-0.00107283178764 -0.00365247981855 0
8.52017255974e-05 -1.91469453575e-06 0
-0.00030940602349 5.45615418048e-05 0
0.000322149115823 5.09489453795e-05 0
0.000728519976439 -0.000533667232532 0
-0.000461827874651 -0.00158867051198 0
-3.97284860652e-05 -0.000356499693157 0
0.000130533313434 -0.000175732988637 0
0.000418424726353 -0.00552409807562 0
-0.000259711654939 -0.000466318378403 0
0.000269458184831 -0.00272985316511 0
-0.000724473044934 -0.00527268583135 0
-0.000922416120074 -0.00274770616218 0
-0.000257593381855 -0.00187847495329 0
-0.000301359396478 -0.00813033895324 0
-1.52833947786e-05 0.000187980237217 0
3.29229159272e-05 0.000182038706365 0
-0.000716027996761 -0.000852595464251 0
-0.000196434276133 -0.000467611644226 0
-6.70342969118e-05 6.79895515099e-05 0
0.0012090593837 -0.0039627811016 0
8.41910724778e-05 6.46647585214e-05 0
-0.000118334573806 -0.000171152081133 0
0.000487706008238 -0.00869421315032 0
-0.000702945120983 -0.00046757787208 0
-0.000989042695132 -0.00255284461592 0
0.000625831127453 -0.000343576916262 0
-0.000120575373117 -0.00323536152008 0
-1.33515841708e-05 0.000137264049236 0