# vtk DataFile Version 2.0
Generated with Solid Solver
ASCII
DATASET UNSTRUCTURED_GRID
POINTS 856 float 
0.0 3.5 0.0
1.6 3.5 0.0
1.6 4.0 0.0
0.0 4.0 0.0
0.0695652173912 3.5 0.0
0.139130434782 3.5 0.0
0.208695652174 3.5 0.0
0.278260869565 3.5 0.0
0.347826086956 3.5 0.0
0.417391304347 3.5 0.0
0.486956521738 3.5 0.0
0.556521739129 3.5 0.0
0.62608695652 3.5 0.0
0.695652173911 3.5 0.0
0.765217391302 3.5 0.0
0.834782608694 3.5 0.0
0.904347826085 3.5 0.0
0.973913043477 3.5 0.0
1.04347826087 3.5 0.0
1.11304347826 3.5 0.0
1.18260869565 3.5 0.0
1.25217391304 3.5 0.0
1.32173913043 3.5 0.0
1.39130434783 3.5 0.0
1.46086956522 3.5 0.0
1.53043478261 3.5 0.0
1.6 3.56430812594 0.0
1.6 3.62270835268 0.0
1.6 3.6757434324 0.0
1.6 3.7239062376 0.0
1.6 3.76764438351 0.0
1.6 3.80736436404 0.0
1.6 3.84343531219 0.0
1.6 3.87619247117 0.0
1.6 3.90594026707 0.0
1.6 3.93295517284 0.0
1.6 3.95748825478 0.0
1.6 3.97976750982 0.0
1.58000000587 4.0 0.0
1.55999996633 4.0 0.0
1.54000002214 4.0 0.0
1.51999997198 4.0 0.0
1.50000000455 4.0 0.0
1.48000000216 4.0 0.0
1.45999997931 4.0 0.0
1.44000002484 4.0 0.0
1.41999997044 4.0 0.0
1.40000002096 4.0 0.0
1.37999999963 4.0 0.0
1.35999999626 4.0 0.0
1.34000002179 4.0 0.0
1.31999997343 4.0 0.0
1.3000000318 4.0 0.0
1.27999998783 4.0 0.0
1.26000000202 4.0 0.0
1.24000001295 4.0 0.0
1.21999998074 4.0 0.0
1.20000003685 4.0 0.0
1.17999998163 4.0 0.0
1.16000001473 4.0 0.0
1.14000000469 4.0 0.0
1.11999999139 4.0 0.0
1.10000003625 4.0 0.0
1.07999997877 4.0 0.0
1.06000002802 4.0 0.0
1.04000000338 4.0 0.0
1.02000000764 4.0 0.0
1.00000002986 4.0 0.0
0.979999980237 4.0 0.0
0.960000035522 4.0 0.0
0.939999990881 4.0 0.0
0.920000014619 4.0 0.0
0.900000017903 4.0 0.0
0.879999986222 4.0 0.0
0.860000037278 4.0 0.0
0.839999982352 4.0 0.0
0.820000022783 4.0 0.0
0.800000000002 4.0 0.0
0.779999977222 4.0 0.0
0.760000017652 4.0 0.0
0.739999962726 4.0 0.0
0.720000013782 4.0 0.0
0.699999982101 4.0 0.0
0.679999985385 4.0 0.0
0.660000009123 4.0 0.0
0.639999964482 4.0 0.0
0.620000019766 4.0 0.0
0.599999970141 4.0 0.0
0.57999999236 4.0 0.0
0.559999996622 4.0 0.0
0.539999971983 4.0 0.0
0.520000021235 4.0 0.0
0.499999963756 4.0 0.0
0.480000008612 4.0 0.0
0.459999995315 4.0 0.0
0.439999985272 4.0 0.0
0.420000018371 4.0 0.0
0.39999996315 4.0 0.0
0.380000019261 4.0 0.0
0.359999987052 4.0 0.0
0.339999997986 4.0 0.0
0.320000012172 4.0 0.0
0.299999968206 4.0 0.0
0.280000026575 4.0 0.0
0.259999978213 4.0 0.0
0.240000003742 4.0 0.0
0.220000000371 4.0 0.0
0.199999979041 4.0 0.0
0.180000029557 4.0 0.0
0.159999975162 4.0 0.0
0.140000020694 4.0 0.0
0.119999997846 4.0 0.0
0.0999999954514 4.0 0.0
0.0800000280232 4.0 0.0
0.0599999778571 4.0 0.0
0.0400000336732 4.0 0.0
0.0199999941324 4.0 0.0
0.0 3.97976750982 0.0
0.0 3.95748825478 0.0
0.0 3.93295517284 0.0
0.0 3.90594026707 0.0
0.0 3.87619247117 0.0
0.0 3.84343531219 0.0
0.0 3.80736436404 0.0
0.0 3.76764438351 0.0
0.0 3.7239062376 0.0
0.0 3.6757434324 0.0
0.0 3.62270835268 0.0
0.0 3.56430812594 0.0
0.249757905714 3.75212552678 0.0
1.35000000902 3.74954526597 0.0
0.488714190926 3.75947467509 0.0
0.727445026698 3.75983525744 0.0
0.962900270309 3.76055270856 0.0
1.17161197633 3.81755162829 0.0
0.130754031542 3.86878251069 0.0
1.46924596846 3.86878251069 0.0
0.369913852535 3.84868154079 0.0
0.603236233099 3.84763103091 0.0
0.843402107212 3.84736931152 0.0
1.05041705507 3.86611282467 0.0
0.250539323282 3.87785527135 0.0
1.34882231626 3.87787871523 0.0
0.468661896861 3.89189320321 0.0
0.704258117309 3.89639128976 0.0
0.94963922804 3.89654080835 0.0
1.25000000748 3.89875296068 0.0
1.12879020517 3.91059303421 0.0
0.548928478218 3.91905583534 0.0
0.7889268651 3.91906062813 0.0
0.0712526194949 3.93011432704 0.0
1.52874738051 3.93011432704 0.0
1.4740071133 3.74293106904 0.0
0.125992886699 3.74293106904 0.0
0.329956761073 3.92118145982 0.0
1.09412206522 3.66725831207 0.0
0.190000004299 3.92542384899 0.0
1.41098423528 3.92728100222 0.0
0.629999992124 3.92414139091 0.0
0.87000001175 3.92414140592 0.0
0.853391941071 3.71944243214 0.0
0.610032822379 3.72536074396 0.0
0.41090315692 3.92892991009 0.0
0.370435019193 3.7251305208 0.0
1.01000001875 3.93130199947 0.0
1.22823348571 3.68694249365 0.0
1.18894423177 3.93487447818 0.0
1.31063576122 3.93502724255 0.0
0.129927636183 3.94112156482 0.0
1.47007236382 3.94112156482 0.0
1.07646504896 3.76194504855 0.0
1.07000000339 3.94017719684 0.0
0.270000002394 3.93875928556 0.0
1.26759839792 3.80243333593 0.0
0.770332946246 3.83880063275 0.0
0.530342720064 3.83880306325 0.0
0.189898092614 3.63474333735 0.0
1.4101772205 3.6313147556 0.0
0.942883893479 3.62966700486 0.0
0.510631148905 3.62429064243 0.0
0.754670889573 3.63369080225 0.0
0.489999986184 3.94463854908 0.0
0.732500655853 3.9452729887 0.0
0.193627936713 3.81528931126 0.0
1.40183871842 3.81461096917 0.0
0.928721275957 3.94715071018 0.0
0.0604617896557 3.86281267064 0.0
1.53953821034 3.86281267065 0.0
1.25036152032 3.94913766834 0.0
0.30096552553 3.81141484704 0.0
0.297089357677 3.66359682597 0.0
0.394212311705 3.61316974741 0.0
0.831051681923 3.94633984116 0.0
0.592085081305 3.94901138542 0.0
0.669405291514 3.95495209798 0.0
1.3611855791 3.94637621082 0.0
0.928496698914 3.82436133158 0.0
0.444093171593 3.8271987226 0.0
0.683378885111 3.8234871366 0.0
0.372430737197 3.95235208784 0.0
1.19348789949 3.87019408468 0.0
1.15124363553 3.95467023547 0.0
0.229287653728 3.96038323295 0.0
0.646635519079 3.61231195482 0.0
0.986819459779 3.84973028271 0.0
1.11214815433 3.84770266014 0.0
1.50610225987 3.6604664246 0.0
0.0938977401332 3.6604664246 0.0
0.531976760298 3.96138656711 0.0
0.451361041931 3.96112773652 0.0
0.771976835888 3.96138886125 0.0
1.53311213884 3.79435404356 0.0
0.066887861162 3.79435404356 0.0
0.970836553066 3.9620233382 0.0
0.311702426505 3.96111572975 0.0
1.31698094247 3.6658628839 0.0
1.11177843379 3.95948388532 0.0
1.15003411964 3.72957279566 0.0
0.890058924798 3.96133576813 0.0
0.169108880648 3.96040269401 0.0
1.42850737314 3.96465656678 0.0
0.0426347993992 3.9610175717 0.0
1.5573652006 3.9610175717 0.0
1.28993057938 3.85776473604 0.0
1.34652710411 3.82072629166 0.0
0.897316840472 3.87585124602 0.0
0.814484972147 3.79171515708 0.0
0.573290986674 3.7879873938 0.0
1.02164717476 3.69631051635 0.0
0.41798215839 3.87594988344 0.0
1.18469655214 3.6045863568 0.0
0.657426542805 3.87734841349 0.0
0.0893439701605 3.9657484063 0.0
1.51065602984 3.9657484063 0.0
0.850202761783 3.61862953305 0.0
0.185775988195 3.86980628439 0.0
1.41422401181 3.86980628439 0.0
0.305957202498 3.87340573583 0.0
0.629999992124 3.96272981278 0.0
0.686026569054 3.68766751472 0.0
1.03220081924 3.96436031967 0.0
0.445441337222 3.69456289967 0.0
1.33308537187 3.96770341358 0.0
1.0249206042 3.60512275769 0.0
0.128645746764 3.81165411571 0.0
1.47135425324 3.81165411571 0.0
1.29077706219 3.96625078806 0.0
1.21302440104 3.96491551313 0.0
0.373320303365 3.89968789902 0.0
0.409457647309 3.96502881891 0.0
1.39076199588 3.96614348387 0.0
1.2156032112 3.76624353786 0.0
0.383301616321 3.78976397621 0.0
0.593246012246 3.8948346816 0.0
0.833004203108 3.89475034107 0.0
0.187583903859 3.70688411961 0.0
1.41241609614 3.70688411961 0.0
1.08573330585 3.89673930733 0.0
1.04303343403 3.81530385578 0.0
0.103644791029 3.90516202075 0.0
1.49635520897 3.90516202075 0.0
1.23586605501 3.85112068621 0.0
0.921814270996 3.70213058021 0.0
0.532219762185 3.7029333087 0.0
1.28217045716 3.7375098981 0.0
0.779621693208 3.70806977531 0.0
0.998890529268 3.88397615296 0.0
0.659406618131 3.76469373474 0.0
0.230043799244 3.91599372373 0.0
1.53690667654 3.72637971331 0.0
0.0630933234627 3.72637971331 0.0
0.153148105836 3.90639761309 0.0
1.4478092366 3.90500627713 0.0
0.512139854501 3.90538519137 0.0
0.750930702019 3.90340708 0.0
0.0409150717909 3.90046251393 0.0
1.55908492821 3.90046251393 0.0
0.702096631597 3.96656725638 0.0
0.246204062466 3.82734823738 0.0
0.872012730916 3.80079945556 0.0
0.313419524246 3.75328100976 0.0
1.26305184675 3.57725747237 0.0
1.04341944162 3.90846795586 0.0
0.697725469476 3.93030230037 0.0
0.27003033309 3.96477332623 0.0
0.632456188669 3.80120134001 0.0
0.55988813035 3.96676596088 0.0
0.798125231733 3.9668778541 0.0
0.861599835739 3.96514225679 0.0
0.130196681328 3.96566148827 0.0
1.46980331867 3.96566148827 0.0
0.337465698618 3.96873835045 0.0
1.10690030388 3.57445060302 0.0
1.07038768144 3.96631210642 0.0
0.201908835349 3.96783542832 0.0
1.17640357301 3.96795841043 0.0
0.482502283815 3.8454083814 0.0
1.37723451734 3.90442225885 0.0
0.722497886517 3.84543272537 0.0
0.254749007352 3.57960328731 0.0
0.449206209982 3.91785378051 0.0
0.907803563184 3.91575967116 0.0
0.997592319531 3.96832081731 0.0
1.3597087328 3.59165409162 0.0
0.797785363131 3.87112617582 0.0
0.557788209884 3.87112741711 0.0
0.133223775006 3.57024633267 0.0
1.46673023696 3.57019175074 0.0
0.296361477075 3.90524448543 0.0
1.29555045611 3.90092076583 0.0
1.11951450862 3.79592056714 0.0
0.341558640376 3.57546927501 0.0
0.974255514016 3.92370320024 0.0
0.664786082443 3.91707165091 0.0
1.1442561544 3.86460464827 0.0
0.430695849932 3.74774845865 0.0
1.22439218721 3.92431164104 0.0
0.917330800791 3.76752811157 0.0
0.0995806821614 3.83759752714 0.0
1.50041931784 3.83759752714 0.0
0.586492545959 3.6571718064 0.0
1.16809690663 3.90376349956 0.0
0.490525946651 3.9687439861 0.0
0.170108846494 3.77025381333 0.0
0.726723612771 3.96611364881 0.0
1.42998397347 3.77014833166 0.0
1.55978981314 3.82099569701 0.0
0.0402101868575 3.82099569701 0.0
1.10043652243 3.92805072974 0.0
1.34111814411 3.91924529479 0.0
1.27430066613 3.93505265881 0.0
0.56431092584 3.57086686051 0.0
0.930516510487 3.96969091611 0.0
1.17713743504 3.67180033503 0.0
0.801256410508 3.5635758738 0.0
1.37979186382 3.84566323689 0.0
1.02277822921 3.7577258162 0.0
0.252009847995 3.68167957306 0.0
0.0497138210057 3.58866012032 0.0
1.55028617899 3.58866012032 0.0
0.466046622144 3.57331739513 0.0
0.343019074867 3.81481221655 0.0
0.0645235269233 3.96909610548 0.0
1.53547647308 3.96909610548 0.0
0.0310141903995 3.92955737583 0.0
[...]
POINT_DATA 856
VECTORS Displacement float
0.0 0.0 0
0.0 0.0 0
-3.27754515522e-05 0.000189484299111 0
4.78309658145e-05 0.000194602380599 0
0.0 0.0 0
0.0 0.0 0
0.0 0.0 0
0.0 0.0 0
0.0 0.0 0
0.0 0.0 0
0.0 0.0 0
0.0 0.0 0
0.0 0.0 0
0.0 0.0 0
0.0 0.0 0
0.0 0.0 0
0.0 0.0 0
0.0 0.0 0
0.0 0.0 0
0.0 0.0 0
0.0 0.0 0
0.0 0.0 0
0.0 0.0 0
0.0 0.0 0
0.0 0.0 0
0.0 0.0 0
0.000134721666347 -6.00043248456e-05 0
0.000228160428144 -4.43361134573e-05 0
0.000280305152414 -1.63838027875e-06 0
0.000286980043209 4.97128867549e-05 0
0.000267048843597 9.45609699052e-05 0
0.000229979660138 0.000131327587734 0
0.00018373941373 0.000157356731354 0
0.000137951654515 0.000174508425272 0
9.39163099195e-05 0.000184361028777 0
5.46011785001e-05 0.00018821634413 0
2.09756538012e-05 0.000189597828551 0
-7.72601502586e-06 0.000189623473738 0
-3.2637424852e-05 0.000164789230813 0
-3.24676171446e-05 0.000141105076283 0
-3.30983024364e-05 0.000118843235431 0
-3.50526672087e-05 9.80348434768e-05 0
-3.89262211176e-05 7.84427909525e-05 0
-4.52135299789e-05 5.89933811318e-05 0
-5.42664670804e-05 4.03096234838e-05 0
-6.63220131126e-05 2.00947114663e-05 0
-8.18976379766e-05 -9.15758282899e-07 0
-0.000100308444547 -2.49296302154e-05 0
-0.000122781216592 -5.08216603621e-05 0
-0.000148768871734 -8.15970152968e-05 0
-0.000179527851636 -0.000116606116588 0
-0.000214033040639 -0.000157614679957 0
-0.00025159264837 -0.000205258841933 0
-0.000295105387942 -0.000259899841306 0
-0.000341515187639 -0.000322858019909 0
-0.000391337954903 -0.000396740830175 0
-0.000446857252947 -0.00048217674476 0
-0.000509034977538 -0.000578952477067 0
-0.000573435274316 -0.000692324866301 0
-0.00064552863251 -0.000821914393819 0
-0.000718221544301 -0.000970791985606 0
-0.000794626645246 -0.0011428975234 0
-0.000878941329461 -0.00133543375424 0
-0.000964490556131 -0.00155768872505 0
-0.00106011122342 -0.00181197411822 0
-0.0011541480181 -0.00210442487918 0
-0.0012588891088 -0.00244470100765 0
-0.00135729466466 -0.00283779678404 0
-0.00146518078917 -0.00329147226313 0
-0.00158065778414 -0.00384160399339 0
-0.00167929309289 -0.00449850162564 0
-0.00179784975135 -0.0053447698922 0
-0.00183809033474 -0.006431652525 0
-0.00169273241039 -0.00823625922117 0
-0.00135443780664 -0.00988082717281 0
-0.000924149927391 -0.0110485841848 0
-0.000445943896195 -0.0117434679657 0
4.55265287471e-05 -0.0119715412148 0
0.000515272219709 -0.0117481430636 0
0.00100136106541 -0.0110525549282 0
0.00140078002808 -0.00988617621456 0
0.00174911749738 -0.00824301732218 0
0.00187686573125 -0.00644627522984 0
0.00181155746334 -0.00533134490755 0
0.00170345333557 -0.00449846027955 0
0.00158912975863 -0.00383553547794 0
0.00148955903882 -0.00329242927153 0
0.00137690134386 -0.00283192409872 0
0.00127313689518 -0.00243868368508 0
0.00117247044436 -0.00210268370824 0
0.00107853889718 -0.00181129580281 0
0.000984608893897 -0.00155474523106 0
0.000898262917487 -0.00133062855408 0
0.000810916472128 -0.00113625591201 0
0.000732522766471 -0.000966704957362 0
0.00065731516699 -0.000820397460164 0
0.000589858357576 -0.00069053069295 0
0.000524076185506 -0.000577949079696 0
0.000461833958939 -0.000480563780037 0
0.000406743824127 -0.000395254611958 0
0.000355192329605 -0.000322494355056 0
0.000308690380017 -0.000258553063123 0
0.000265602635983 -0.000204108659285 0
0.000228120367875 -0.000156386445925 0
0.000193724467373 -0.000116079679369 0
0.000164154129279 -8.03012332527e-05 0
0.000137902219788 -4.97428919527e-05 0
0.00011506458515 -2.33133622067e-05 0
9.67526150449e-05 8.36969959814e-07 0
8.12811130769e-05 2.20201132468e-05 0
6.92767660387e-05 4.27222313097e-05 0
6.01857157538e-05 6.18075733324e-05 0
5.39301629891e-05 8.15867030434e-05 0
5.00810563599e-05 0.000101559885446 0
4.81428008655e-05 0.000122763231719 0
4.75194791073e-05 0.000145425314288 0
4.76923459212e-05 0.000169509680466 0
2.23804848132e-05 0.000194742170641 0
-6.76051265587e-06 0.000194720560073 0
-4.08692127098e-05 0.000193348515555 0
-8.07236838065e-05 0.00018951318324 0
-0.000125375568946 0.000179700341542 0
-0.000171911395132 0.000162599357046 0
-0.000219040242 0.000136612665049 0
-0.000257273930414 9.98660305144e-05 0
-0.000278679139784 5.48840372064e-05 0
-0.000273781403578 3.07609098421e-06 0
-0.00022352782877 -4.04866821105e-05 0
-0.000132004447638 -5.74482293606e-05 0
-0.000394758914284 -8.58219629879e-05 0
0.000407564041725 -8.64310166811e-05 0
-0.000749962492671 -0.000999779471599 0
-0.000513566016355 -0.00351866061108 0
0.000859420340497 -0.00253347343081 0
0.000496800826552 -0.000672131979961 0
-0.000147604125528 5.42489831447e-05 0
0.000159905323349 5.16148789805e-05 0
-0.000285913326416 -0.000384793642452 0
-0.000726380228547 -0.00264804296289 0
0.000440752223009 -0.0056848939785 0
0.000487251277265 -0.00184466986301 0
-0.000133898812434 -7.12819782605e-05 0
0.000146950288534 -7.39347717594e-05 0
-0.000142827692075 -0.000974866793696 0
-0.000674523735897 -0.00558586324578 0
0.000577912373346 -0.00395872457439 0
7.58571267099e-05 -0.000314947806918 0
1.89421489437e-05 -0.00100439267978 0
1.30468790787e-05 -0.00187440925582 0
-0.000100768981882 -0.00834063609935 0
-4.48877655101e-05 0.000110498007231 0
5.85558494988e-05 0.00010679966448 0
0.00032133322287 2.1923368383e-05 0
-0.000312238311985 2.4198962112e-05 0
2.93261314511e-05 -0.000251789044652 0
0.000750412176431 -0.000805743249543 0
-2.64778204045e-05 4.44986540595e-06 0
3.69424156817e-05 3.78238851291e-06 0
-0.00014157819842 -0.00347599426631 0
0.000528069002664 -0.00707494848013 0
0.000359356950039 -0.00295015274966 0
-0.000837254615084 -0.00189985967178 0
0.000117608719794 -0.000590256708726 0
-0.000580816298672 -0.000354087643581 0
-7.47704785759e-05 -0.00257715551267 0
0.000592908302033 -0.00032615978774 0
-0.000139697525627 -0.000596185052525 0
-3.88464337127e-05 -0.000151365452277 0
-1.68161274293e-05 5.84693578005e-05 0
3.06778139912e-05 5.60093530243e-05 0
0.000815733996491 -0.0012958563556 0
-0.000255701327228 -0.00162613507812 0
5.07283689594e-05 -0.000110831930024 0
0.000408487141657 -0.000257173225935 0
-0.000283618828385 -0.00558299412496 0
-0.000588443599665 -0.00155718617482 0
-0.000319230023936 -3.42163411436e-05 0
0.000321670901028 -3.61018894625e-05 0
0.000533112577924 -0.00129366175843 0
-0.000638894704415 -0.000628213155794 0
-0.000202775434882 -0.00165714226801 0
0.00030117718115 -0.00117990542532 0
-0.000295412665789 -0.0077073995875 0
-0.000259055742286 -7.15074111013e-06 0
0.00027486066918 -1.38736348969e-05 0
-1.39439254228e-05 -0.00486310594629 0
-0.000152218166467 0.000107540036841 0
0.000164522664358 0.00010365949973 0
-0.000152337353606 -0.000325655002365 0
-0.000340682603598 -0.000174827720298 0
-0.000466092787175 -0.000148660273146 0
-0.000505355217537 -0.000276864133945 0
0.000225723135317 -0.00913845810429 0
0.000367283800039 -0.00262038608128 0
0.000230504694202 -0.00481155350292 0
-3.40954541392e-05 -6.16686186933e-05 0
0.000854926718269 -0.00375862247386 0
-0.000473572552726 -0.000768572769447 0
-0.00079900295917 -0.00397058942347 0
0.000212123677253 -0.000413348888982 0
0.000233975484646 -0.000560131273064 0
-0.000322932024912 -0.000844739775248 0
7.32751381843e-05 -4.94225113206e-05 0
-0.000510721717934 -0.00106608200874 0
0.000758203932671 -0.00284664908789 0
0.000464090489657 -0.00112735790659 0
0.00029587659033 8.37389852596e-06 0
-0.000290314268966 1.07230087949e-05 0
0.000537725432675 -0.00165722116474 0
0.000395784554824 -0.000862622927022 0
-5.14216998553e-05 -0.00988139646386 0
0.000260226540311 7.25207223935e-05 0
-0.000249607922973 7.61590497946e-05 0
-0.000544230918805 -0.00348527561893 0
0.000166468739302 -0.000212239441807 0
0.000455686263724 -0.000130530081867 0
-0.000429704290295 -0.00117524039184 0
0.000722893001682 -0.000696190952731 0
-2.32337629147e-05 -0.00685920009132 0
3.10405915116e-05 2.10193331032e-05 0
-2.50903603025e-05 1.61400967205e-05 0
-1.46999349714e-06 0.000142175130024 0
1.57545524685e-05 0.000137906047756 0
0.0002251725428 -0.00019322151162 0
0.000293750713655 -8.15506813375e-05 0
0.000747732967672 -0.005203558166 0
0.000133742230117 -0.00452912088332 0
-0.000843151783744 -0.00192013762349 0
0.000828894164468 -0.00142198013172 0
-0.000199492250585 -0.000619684113387 0
0.000501439257621 -0.00029871357436 0
-0.000702901437614 -0.00401053365465 0
1.03039198051e-05 9.39071930778e-05 0
4.08109675316e-06 9.0569980755e-05 0
0.000213058403513 -0.00142704513612 0
-0.000149241391252 8.48600403323e-06 0
0.000161383137918 7.24373793639e-06 0
-0.000156718537158 -0.000181275728346 0
0.0005866843818 -0.00351424057055 0
-0.000589800924499 -0.0021251913269 0
-0.000604986527133 -0.00218698122532 0
-0.000708289513114 -0.000603008527234 0
-0.00011507297023 -0.000114853462408 0
0.000577949129818 -0.000749181330517 0
-0.000242241931283 4.39886930604e-05 0
0.000253611179139 4.13112078281e-05 0
-0.000165393127751 -0.000209627137498 0
-0.000286513241294 -0.000485716479388 0
-5.60630532878e-05 -0.000402975813676 0
0.000343932324996 -0.000598275771013 0
-5.40522369353e-05 -2.58263002424e-05 0
0.000565679630773 -0.000428743506207 0
-0.000497478454492 -0.00043293420017 0
-0.000354491076866 -0.00259800673139 0
0.00036135897494 -0.00720013166929 0
-0.000362181488228 -2.47667833449e-05 0
0.000369458262768 -2.53139189144e-05 0
0.00017641309696 -0.00142646588543 0
0.000759061783229 -0.00183239693964 0
-8.32878770035e-05 8.006988166e-05 0
9.64410420781e-05 7.69884292606e-05 0
0.000284067787123 -0.000365091716756 0
0.0006502999055 -0.00226831760749 0
-0.00081177404417 -0.00111950013522 0
0.000501719855362 -0.000213616366328 0
-0.000133532653145 -0.0028614478667 0
0.000509677229091 -0.00273501237514 0
-0.000812988806494 -0.00284895356144 0
-3.44221702964e-05 -4.28292023034e-05 0
0.000305387207982 4.02404515727e-05 0
-0.000297090075236 4.36861619624e-05 0
-7.47856103423e-05 3.92436108958e-05 0
9.12931319552e-05 3.76458127548e-05 0
-7.99647963128e-05 -0.00140025190106 0
-0.000467666754817 -0.00714726925953 0
-9.14512126552e-05 0.000136385810166 0
0.000104536812967 0.000132086849602 0
0.000271122673449 -0.00644152545794 0
-0.000261894275105 -6.95595549821e-05 0
0.000583097846216 -0.00428001179737 0
-0.000467805005479 -0.000206103949793 0
0.000338578480887 -0.000130615499823 0
0.000138602849524 -0.00198784244987 0
-0.000404795537653 -0.00585576998471 0
0.000124994596024 -0.000119028471155 0
-0.000864991266225 -0.002849860304 0
0.000653106156571 -0.00205883509733 0
3.23378377104e-05 -0.010506315591 0
2.72435187034e-05 -0.00860498737414 0
2.14875204871e-05 5.64224311905e-05 0
-7.06553213181e-06 5.38021010098e-05 0
0.000233286368838 -0.000292491617505 0
0.000440023433092 -0.000356446337049 0
-0.000577737554898 -0.00163597014558 0
6.57773361694e-05 -1.61403055712e-05 0
-0.000375711151397 -0.000683882276451 0
-0.0004550776934 -0.00107326953347 0
7.96096163289e-05 -3.38892487731e-05 0
-0.000663624515977 -0.00507341223815 0
-0.000267670912448 -6.56845550718e-05 0
5.61639880344e-05 -0.000829716291435 0
0.000561499343702 -0.00546367247683 0
-0.000701314964455 -0.00284555605287 0
0.00028941119856 -6.40301904651e-05 0
-1.67478618048e-05 -0.00665967318596 0
-0.000457920562655 -0.00196559542495 0
-0.000173251943273 -1.04827945071e-05 0
0.000176208966775 -1.13295188113e-05 0
-4.48066055089e-05 -0.000160879963543 0
7.23742047111e-05 -0.00017977768049 0
0.000667054360255 -0.00101028289808 0
-0.00033360326212 -0.00013302340164 0
0.000155320716945 -0.00337593833138 0
-0.000415008262218 -0.00449806043984 0
0.000317633969135 -0.000870767132939 0
-0.000660041170897 -0.00062299532281 0
-5.49189361283e-05 -0.000418492832613 0
0.00075469155455 -0.00318007704279 0
-0.000196699262428 7.00749245799e-05 0
0.000208354895787 6.70049990863e-05 0
-0.000719198929014 -0.00118179055014 0
5.54805448423e-05 -0.000712144742143 0
0.000543818337402 -0.00119939989616 0
-0.000312453043856 3.47249562806e-06 0
6.55033641132e-05 -0.00795467375566 0
0.000322587844239 1.39707588965e-06 0
0.000221425855354 0.000103393231368 0
-0.000210139142367 0.000107672465511 0
-0.000127362942934 -0.00126990120144 0
2.78841328067e-05 -8.89492829346e-05 0
-6.81700433175e-05 -0.00024325505069 0
-0.000430855491866 -0.000477329196867 0
-0.00060195434373 -0.00483101141972 0
0.000662994886598 -0.000468932450524 0
2.0172679533e-06 -0.000723157768532 0
0.000220979156322 -3.25897512014e-05 0
0.000880238820785 -0.00181610143083 0
-0.0004192639163 -9.05784376615e-05 0
-0.000180257754142 -1.17566278451e-05 0
0.000183496496093 -1.36821566394e-05 0
-0.000429333374804 -0.000297100072488 0
-0.000375879038712 -0.000287111094968 0
1.10523588174e-05 0.000118526391662 0
3.39119773344e-06 0.000114696071022 0
-4.65852140421e-05 0.000152874932275 0
6.02506695167e-05 0.000148368603173 0
-0.000260397000504 -0.000761432940182 0
-0.000139280420247 -0.000259546236853 0
-0.000557223937102 -0.00027871317029 0
-0.000774673481711 -0.00137197537527 0
-0.000281192624029 -0.00428146473711 0
0.000255622594581 -0.000787133515342 0
0.000405615615565 -0.000150803857534 0
-0.000200819857836 2.74346371555e-05 0
-0.000268043918153 -0.00033851499156 0
0.000212693609546 2.80375080401e-05 0
0.00047870402947 -0.000427166952893 0
0.000811490751754 -0.00365911379745 0
-0.000568621393019 -0.00103894439986 0
7.70759618433e-05 -0.00570386865438 0
-0.000687286661073 -0.00202177209482 0
-9.9715750947e-05 -7.78127724793e-05 0
-3.33995324011e-05 8.44346834909e-05 0
4.71680334922e-05 8.13051379408e-05 0
0.000805907075321 -0.0029287993486 0
0.000780033369083 -0.00424169569701 0
0.000625310678702 -0.0015116010566 0
-8.52909956867e-05 0.000106471963044 0
9.84462054932e-05 0.000102812665347 0
-0.000326969924996 8.02617532947e-06 0
0.000334145181573 5.99285893616e-06 0
-0.000240038207087 -0.0107503626186 0
0.00062141740302 -0.00636524302865 0
0.000344620228434 -0.000489255681857 0
1.31472996042e-05 0.000160896586357 0
1.36244281933e-06 0.000156313160168 0
0.000878668662905 -0.00287752434397 0
-0.000520663561518 -0.00329742215976 0
-0.000174919264568 -0.000167957884369 0
-0.000161208369762 -2.77846380726e-05 0
0.000805478155815 -0.000972400318638 0
-2.2734034926e-05 3.70573106603e-05 0
3.0837606705e-05 -0.000540825302974 0
4.10819482359e-05 3.29431018361e-05 0
0.00046908372906 -0.000726801771514 0
0.000740707846789 -0.00470082496448 0
-0.000224731057969 -0.00100573892699 0
-0.000832972789505 -0.00343651348965 0
0.000378471812689 -0.000593733396641 0
-0.000369199561215 -0.000554481796219 0
-8.20339055995e-05 -1.16639026173e-05 0
0.000417801213161 -7.56677901141e-05 0
-6.13188546997e-05 -6.67718329395e-06 0
-0.000369635352553 -0.00135765253572 0
-0.000497188109269 -0.00613073107167 0
-0.000635848203124 -0.00101556171462 0
0.000137438257971 -8.96215915352e-05 0
3.45868193669e-05 -0.00229323630896 0
0.000165495479611 -0.00853123464012 0
-0.000620695781342 -0.00423465928027 0
8.310219996e-05 -0.000338957333128 0
0.000611158709898 -0.00526029967377 0
-0.000768256316622 -0.00469651564526 0
-0.000134149225753 0.000134536702844 0
0.000146666577834 0.000130123255584 0
-0.000200028684597 -0.00203216367947 0
0.000795173432627 -0.00195018189479 0
0.000197997801706 -3.00006849578e-05 0
-0.000240849778441 -0.000266427249663 0
0.000190468781451 -0.000165622024533 0
-0.000319149033067 -4.69209516145e-05 0
-4.45291794004e-05 -8.08079597763e-05 0
-0.000855088001782 -0.00147751067942 0
-0.000308453384827 -0.000832886407255 0
-0.000210070684278 -0.000110943859419 0
-0.00018478873096 -2.79540718989e-05 0
0.000601261993834 -0.00103183114427 0
0.00071365065899 -0.00140926821875 0
0.000346305010634 -0.00972163862709 0
0.000237257045797 -0.00110993257495 0
-0.000142928411829 8.26567784511e-05 0
0.000155446801509 7.94187647667e-05 0
0.000295171943272 1.91274626385e-05 0
-0.000288630496094 2.24299275988e-05 0
0.000336438920907 -5.04796280619e-05 0
-3.32407678675e-05 -0.00364265442728 0
-0.00099225655531 -0.00413421163424 0
4.9060249947e-05 3.72873911603e-05 0
-3.54065196251e-05 3.41490664565e-05 0
-0.000520518903407 -0.000230428708098 0
0.000301224838191 -0.000382020907504 0
-0.000870677646388 -0.00574280547216 0
-9.72467182091e-06 -2.78574979078e-05 0
0.000198838369947 -0.00144033649092 0
-0.00038180550592 -0.00792357693987 0
-0.000679619879881 -0.00141180078499 0
3.39891802416e-05 7.33447444476e-05 0
-1.9360459061e-05 7.04023814058e-05 0
-0.000103604144885 -0.000817284325693 0
0.000336504162395 -0.000161949710417 0
0.000781066883738 -0.0024303723916 0
0.000710446914862 -0.00129776565075 0
0.000495840529513 -0.00020330423179 0
0.000155203431732 -0.000421609931014 0
-0.000808235638113 -0.00190742916732 0
-0.000622601962896 -0.000483891317056 0
0.000105985821653 -0.000110137471253 0
0.000309353672941 -0.001914714482 0
-5.51753382399e-05 -0.0093723913826 0
2.30083425667e-05 -1.80960368022e-05 0
-0.000541182455408 -0.00674879902205 0
4.33719605077e-05 -0.00015874600643 0
0.000211910903812 -0.00011556842412 0
0.000139944100624 -0.00237181552937 0
0.000368600605837 -3.50573122899e-05 0
-0.000240995395671 -0.000267807619646 0
-0.000423269246524 -0.00272926463408 0
0.000614587215165 -0.00233099277663 0
-0.000772137278468 -0.000873888090336 0
7.45888906543e-05 -0.00103714761215 0
-0.000332196794745 -0.00042907897009 0
0.00010177788216 -5.44302893577e-06 0
-0.000358244141293 -3.2576588651e-05 0
0.00041345590678 -0.00225848289851 0
-0.000507548120927 -0.000854222367028 0
-0.000410890494722 -0.00147384218504 0
0.000255082291939 9.23255420037e-05 0
-0.000244599973828 9.67818359725e-05 0
0.00028324800268 -0.00412838304954 0
0.000397707408263 -0.00142998139214 0
0.000262846760826 -0.000692352949249 0
0.000660024092294 -0.000634645531571 0
-0.000370124464901 -7.54315709347e-05 0
0.00010179044306 -4.09719422832e-05 0
-0.000282223491345 -0.000139049352753 0
0.000338066141998 -0.00828988861918 0
0.000239108394226 -0.00313646125271 0
9.97945557329e-05 -0.00405446333885 0
0.000237787951742 -0.000247375349427 0
-1.32592110822e-05 -0.000665543800626 0
2.21401995789e-06 7.30613381381e-05 0
0.000129203909232 -0.000263456437148 0
1.20162798162e-05 7.01627723553e-05 0
0.000196420375268 -0.000291995221899 0
0.000838935854209 -0.00186655946623 0
0.000143982334198 -0.010792967931 0
-0.000180752625137 -0.00302751767081 0
-0.00035273279142 -0.000113949085154 0
-0.000718472714588 -0.00156703208405 0
0.000849254540662 -0.00238272172659 0
0.000359276508966 -0.000685174102932 0
0.000374515420344 -0.000496597731517 0
-0.000488895715905 -0.00187533523468 0
0.000278966691056 -0.00587857128028 0
0.000114403595164 -0.000469714184352 0
-1.50794120789e-05 -3.01616327155e-06 0
-0.000503732349932 -0.000313302187043 0
-0.000502965357538 -0.00818691749126 0
-0.00045717111906 -0.000137667418318 0
0.000289875350377 -0.000142463000969 0
2.76080164096e-05 -6.70376554581e-05 0
1.32293489136e-05 4.26771025407e-05 0
1.67089221938e-06 3.56446105282e-05 0
0.000551803971464 -0.00355637463769 0
2.72177443561e-05 0.000136615316441 0
-1.25072422968e-05 0.000132450589073 0
-0.000955874327129 -0.00324596944714 0
7.31595740059e-05 -2.02985581498e-06 0
-0.000277293965188 4.80667713391e-05 0
0.000287469012991 4.52376327192e-05 0
0.000649204295355 -0.000475125387559 0
-0.000410567172773 -0.00141319793492 0
-3.44750535822e-05 -0.000317203674193 0
0.000113508824072 -0.000156593850104 0
0.000372936137601 -0.00492525614854 0
-0.000231785597509 -0.00041587599572 0
0.000238725151268 -0.00242840785159 0
-0.000645598728695 -0.00469164273381 0
-0.000823195930388 -0.00244690597015 0
-0.000231233476765 -0.0016720038682 0
-0.00027119926858 -0.00724979562046 0
-1.61955689443e-05 0.000166521213518 0
3.02771350846e-05 0.000161828223335 0
-0.000639412034761 -0.000759374243602 0
-0.000173920640624 -0.000416031696557 0
-6.21443147573e-05 6.00413630716e-05 0
0.00107423040378 -0.00352180611742 0
7.58612886249e-05 5.74732918081e-05 0
-0.000104357387011 -0.000152257863031 0
0.000434844216201 -0.00774681663351 0
-0.000627355018078 -0.000416555176985 0
-0.000882887781893 -0.00227442675544 0
0.000557713466464 -0.000305915468228 0
-0.000108008116356 -0.00287811022273 0