# vtk DataFile Version 2.0
Generated with Solid Solver
ASCII
DATASET UNSTRUCTURED_GRID
POINTS 856 float 
0.0 3.5 0.0
1.6 3.5 0.0
1.6 4.0 0.0
0.0 4.0 0.0
0.0695652173912 3.5 0.0
0.139130434782 3.5 0.0
0.208695652174 3.5 0.0
0.278260869565 3.5 0.0
0.347826086956 3.5 0.0
0.417391304347 3.5 0.0
0.486956521738 3.5 0.0
0.556521739129 3.5 0.0
0.62608695652 3.5 0.0
0.695652173911 3.5 0.0
0.765217391302 3.5 0.0
0.834782608694 3.5 0.0
0.904347826085 3.5 0.0
0.973913043477 3.5 0.0
1.04347826087 3.5 0.0
1.11304347826 3.5 0.0
1.18260869565 3.5 0.0
1.25217391304 3.5 0.0
1.32173913043 3.5 0.0
1.39130434783 3.5 0.0
1.46086956522 3.5 0.0
1.53043478261 3.5 0.0
1.6 3.56430812594 0.0
1.6 3.62270835268 0.0
1.6 3.6757434324 0.0
1.6 3.7239062376 0.0
1.6 3.76764438351 0.0
1.6 3.80736436404 0.0
1.6 3.84343531219 0.0
1.6 3.87619247117 0.0
1.6 3.90594026707 0.0
1.6 3.93295517284 0.0
1.6 3.95748825478 0.0
1.6 3.97976750982 0.0
1.58000000587 4.0 0.0
1.55999996633 4.0 0.0
1.54000002214 4.0 0.0
1.51999997198 4.0 0.0
1.50000000455 4.0 0.0
1.48000000216 4.0 0.0
1.45999997931 4.0 0.0
1.44000002484 4.0 0.0
1.41999997044 4.0 0.0
1.40000002096 4.0 0.0
1.37999999963 4.0 0.0
1.35999999626 4.0 0.0
1.34000002179 4.0 0.0
1.31999997343 4.0 0.0
1.3000000318 4.0 0.0
1.27999998783 4.0 0.0
1.26000000202 4.0 0.0
1.24000001295 4.0 0.0
1.21999998074 4.0 0.0
1.20000003685 4.0 0.0
1.17999998163 4.0 0.0
1.16000001473 4.0 0.0
1.14000000469 4.0 0.0
1.11999999139 4.0 0.0
1.10000003625 4.0 0.0
1.07999997877 4.0 0.0
1.06000002802 4.0 0.0
1.04000000338 4.0 0.0
1.02000000764 4.0 0.0
1.00000002986 4.0 0.0
0.979999980237 4.0 0.0
0.960000035522 4.0 0.0
0.939999990881 4.0 0.0
0.920000014619 4.0 0.0
0.900000017903 4.0 0.0
0.879999986222 4.0 0.0
0.860000037278 4.0 0.0
0.839999982352 4.0 0.0
0.820000022783 4.0 0.0
0.800000000002 4.0 0.0
0.779999977222 4.0 0.0
0.760000017652 4.0 0.0
0.739999962726 4.0 0.0
0.720000013782 4.0 0.0
0.699999982101 4.0 0.0
0.679999985385 4.0 0.0
0.660000009123 4.0 0.0
0.639999964482 4.0 0.0
0.620000019766 4.0 0.0
0.599999970141 4.0 0.0
0.57999999236 4.0 0.0
0.559999996622 4.0 0.0
0.539999971983 4.0 0.0
0.520000021235 4.0 0.0
0.499999963756 4.0 0.0
0.480000008612 4.0 0.0
0.459999995315 4.0 0.0
0.439999985272 4.0 0.0
0.420000018371 4.0 0.0
0.39999996315 4.0 0.0
0.380000019261 4.0 0.0
0.359999987052 4.0 0.0
0.339999997986 4.0 0.0
0.320000012172 4.0 0.0
0.299999968206 4.0 0.0
0.280000026575 4.0 0.0
0.259999978213 4.0 0.0
0.240000003742 4.0 0.0
0.220000000371 4.0 0.0
0.199999979041 4.0 0.0
0.180000029557 4.0 0.0
0.159999975162 4.0 0.0
0.140000020694 4.0 0.0
0.119999997846 4.0 0.0
0.0999999954514 4.0 0.0
0.0800000280232 4.0 0.0
0.0599999778571 4.0 0.0
0.0400000336732 4.0 0.0
0.0199999941324 4.0 0.0
0.0 3.97976750982 0.0
0.0 3.95748825478 0.0
0.0 3.93295517284 0.0
0.0 3.90594026707 0.0
0.0 3.87619247117 0.0
0.0 3.84343531219 0.0
0.0 3.80736436404 0.0
0.0 3.76764438351 0.0
0.0 3.7239062376 0.0
0.0 3.6757434324 0.0
0.0 3.62270835268 0.0
0.0 3.56430812594 0.0
0.249757905714 3.75212552678 0.0
1.35000000902 3.74954526597 0.0
0.488714190926 3.75947467509 0.0
0.727445026698 3.75983525744 0.0
0.962900270309 3.76055270856 0.0
1.17161197633 3.81755162829 0.0
0.130754031542 3.86878251069 0.0
1.46924596846 3.86878251069 0.0
0.369913852535 3.84868154079 0.0
0.603236233099 3.84763103091 0.0
0.843402107212 3.84736931152 0.0
1.05041705507 3.86611282467 0.0
0.250539323282 3.87785527135 0.0
1.34882231626 3.87787871523 0.0
0.468661896861 3.89189320321 0.0
0.704258117309 3.89639128976 0.0
0.94963922804 3.89654080835 0.0
1.25000000748 3.89875296068 0.0
1.12879020517 3.91059303421 0.0
0.548928478218 3.91905583534 0.0
0.7889268651 3.91906062813 0.0
0.0712526194949 3.93011432704 0.0
1.52874738051 3.93011432704 0.0
1.4740071133 3.74293106904 0.0
0.125992886699 3.74293106904 0.0
0.329956761073 3.92118145982 0.0
1.09412206522 3.66725831207 0.0
0.190000004299 3.92542384899 0.0
1.41098423528 3.92728100222 0.0
0.629999992124 3.92414139091 0.0
0.87000001175 3.92414140592 0.0
0.853391941071 3.71944243214 0.0
0.610032822379 3.72536074396 0.0
0.41090315692 3.92892991009 0.0
0.370435019193 3.7251305208 0.0
1.01000001875 3.93130199947 0.0
1.22823348571 3.68694249365 0.0
1.18894423177 3.93487447818 0.0
1.31063576122 3.93502724255 0.0
0.129927636183 3.94112156482 0.0
1.47007236382 3.94112156482 0.0
1.07646504896 3.76194504855 0.0
1.07000000339 3.94017719684 0.0
0.270000002394 3.93875928556 0.0
1.26759839792 3.80243333593 0.0
0.770332946246 3.83880063275 0.0
0.530342720064 3.83880306325 0.0
0.189898092614 3.63474333735 0.0
1.4101772205 3.6313147556 0.0
0.942883893479 3.62966700486 0.0
0.510631148905 3.62429064243 0.0
0.754670889573 3.63369080225 0.0
0.489999986184 3.94463854908 0.0
0.732500655853 3.9452729887 0.0
0.193627936713 3.81528931126 0.0
1.40183871842 3.81461096917 0.0
0.928721275957 3.94715071018 0.0
0.0604617896557 3.86281267064 0.0
1.53953821034 3.86281267065 0.0
1.25036152032 3.94913766834 0.0
0.30096552553 3.81141484704 0.0
0.297089357677 3.66359682597 0.0
0.394212311705 3.61316974741 0.0
0.831051681923 3.94633984116 0.0
0.592085081305 3.94901138542 0.0
0.669405291514 3.95495209798 0.0
1.3611855791 3.94637621082 0.0
0.928496698914 3.82436133158 0.0
0.444093171593 3.8271987226 0.0
0.683378885111 3.8234871366 0.0
0.372430737197 3.95235208784 0.0
1.19348789949 3.87019408468 0.0
1.15124363553 3.95467023547 0.0
0.229287653728 3.96038323295 0.0
0.646635519079 3.61231195482 0.0
0.986819459779 3.84973028271 0.0
1.11214815433 3.84770266014 0.0
1.50610225987 3.6604664246 0.0
0.0938977401332 3.6604664246 0.0
0.531976760298 3.96138656711 0.0
0.451361041931 3.96112773652 0.0
0.771976835888 3.96138886125 0.0
1.53311213884 3.79435404356 0.0
0.066887861162 3.79435404356 0.0
0.970836553066 3.9620233382 0.0
0.311702426505 3.96111572975 0.0
1.31698094247 3.6658628839 0.0
1.11177843379 3.95948388532 0.0
1.15003411964 3.72957279566 0.0
0.890058924798 3.96133576813 0.0
0.169108880648 3.96040269401 0.0
1.42850737314 3.96465656678 0.0
0.0426347993992 3.9610175717 0.0
1.5573652006 3.9610175717 0.0
1.28993057938 3.85776473604 0.0
1.34652710411 3.82072629166 0.0
0.897316840472 3.87585124602 0.0
0.814484972147 3.79171515708 0.0
0.573290986674 3.7879873938 0.0
1.02164717476 3.69631051635 0.0
0.41798215839 3.87594988344 0.0
1.18469655214 3.6045863568 0.0
0.657426542805 3.87734841349 0.0
0.0893439701605 3.9657484063 0.0
1.51065602984 3.9657484063 0.0
0.850202761783 3.61862953305 0.0
0.185775988195 3.86980628439 0.0
1.41422401181 3.86980628439 0.0
0.305957202498 3.87340573583 0.0
0.629999992124 3.96272981278 0.0
0.686026569054 3.68766751472 0.0
1.03220081924 3.96436031967 0.0
0.445441337222 3.69456289967 0.0
1.33308537187 3.96770341358 0.0
1.0249206042 3.60512275769 0.0
0.128645746764 3.81165411571 0.0
1.47135425324 3.81165411571 0.0
1.29077706219 3.96625078806 0.0
1.21302440104 3.96491551313 0.0
0.373320303365 3.89968789902 0.0
0.409457647309 3.96502881891 0.0
1.39076199588 3.96614348387 0.0
1.2156032112 3.76624353786 0.0
0.383301616321 3.78976397621 0.0
0.593246012246 3.8948346816 0.0
0.833004203108 3.89475034107 0.0
0.187583903859 3.70688411961 0.0
1.41241609614 3.70688411961 0.0
1.08573330585 3.89673930733 0.0
1.04303343403 3.81530385578 0.0
0.103644791029 3.90516202075 0.0
1.49635520897 3.90516202075 0.0
1.23586605501 3.85112068621 0.0
0.921814270996 3.70213058021 0.0
0.532219762185 3.7029333087 0.0
1.28217045716 3.7375098981 0.0
0.779621693208 3.70806977531 0.0
0.998890529268 3.88397615296 0.0
0.659406618131 3.76469373474 0.0
0.230043799244 3.91599372373 0.0
1.53690667654 3.72637971331 0.0
0.0630933234627 3.72637971331 0.0
0.153148105836 3.90639761309 0.0
1.4478092366 3.90500627713 0.0
0.512139854501 3.90538519137 0.0
0.750930702019 3.90340708 0.0
0.0409150717909 3.90046251393 0.0
1.55908492821 3.90046251393 0.0
0.702096631597 3.96656725638 0.0
0.246204062466 3.82734823738 0.0
0.872012730916 3.80079945556 0.0
0.313419524246 3.75328100976 0.0
1.26305184675 3.57725747237 0.0
1.04341944162 3.90846795586 0.0
0.697725469476 3.93030230037 0.0
0.27003033309 3.96477332623 0.0
0.632456188669 3.80120134001 0.0
0.55988813035 3.96676596088 0.0
0.798125231733 3.9668778541 0.0
0.861599835739 3.96514225679 0.0
0.130196681328 3.96566148827 0.0
1.46980331867 3.96566148827 0.0
0.337465698618 3.96873835045 0.0
1.10690030388 3.57445060302 0.0
1.07038768144 3.96631210642 0.0
0.201908835349 3.96783542832 0.0
1.17640357301 3.96795841043 0.0
0.482502283815 3.8454083814 0.0
1.37723451734 3.90442225885 0.0
0.722497886517 3.84543272537 0.0
0.254749007352 3.57960328731 0.0
0.449206209982 3.91785378051 0.0
0.907803563184 3.91575967116 0.0
0.997592319531 3.96832081731 0.0
1.3597087328 3.59165409162 0.0
0.797785363131 3.87112617582 0.0
0.557788209884 3.87112741711 0.0
0.133223775006 3.57024633267 0.0
1.46673023696 3.57019175074 0.0
0.296361477075 3.90524448543 0.0
1.29555045611 3.90092076583 0.0
1.11951450862 3.79592056714 0.0
0.341558640376 3.57546927501 0.0
0.974255514016 3.92370320024 0.0
0.664786082443 3.91707165091 0.0
1.1442561544 3.86460464827 0.0
0.430695849932 3.74774845865 0.0
1.22439218721 3.92431164104 0.0
0.917330800791 3.76752811157 0.0
0.0995806821614 3.83759752714 0.0
1.50041931784 3.83759752714 0.0
0.586492545959 3.6571718064 0.0
1.16809690663 3.90376349956 0.0
0.490525946651 3.9687439861 0.0
0.170108846494 3.77025381333 0.0
0.726723612771 3.96611364881 0.0
1.42998397347 3.77014833166 0.0
1.55978981314 3.82099569701 0.0
0.0402101868575 3.82099569701 0.0
1.10043652243 3.92805072974 0.0
1.34111814411 3.91924529479 0.0
1.27430066613 3.93505265881 0.0
0.56431092584 3.57086686051 0.0
0.930516510487 3.96969091611 0.0
1.17713743504 3.67180033503 0.0
0.801256410508 3.5635758738 0.0
1.37979186382 3.84566323689 0.0
1.02277822921 3.7577258162 0.0
0.252009847995 3.68167957306 0.0
0.0497138210057 3.58866012032 0.0
1.55028617899 3.58866012032 0.0
0.466046622144 3.57331739513 0.0
0.343019074867 3.81481221655 0.0
0.0645235269233 3.96909610548 0.0
1.53547647308 3.96909610548 0.0
0.0310141903995 3.92955737583 0.0
[...]
POINT_DATA 856
VECTORS Displacement float
0.0 0.0 0
0.0 0.0 0
-3.68523146229e-06 5.42138667204e-05 0
1.33899408923e-05 5.76464690737e-05 0
0.0 0.0 0
0.0 0.0 0
0.0 0.0 0
0.0 0.0 0
0.0 0.0 0
0.0 0.0 0
0.0 0.0 0
0.0 0.0 0
0.0 0.0 0
0.0 0.0 0
0.0 0.0 0
0.0 0.0 0
0.0 0.0 0
0.0 0.0 0
0.0 0.0 0
0.0 0.0 0
0.0 0.0 0
0.0 0.0 0
0.0 0.0 0
0.0 0.0 0
0.0 0.0 0
0.0 0.0 0
4.0015674653e-05 -1.80810469979e-05 0
6.79342643561e-05 -1.37577525892e-05 0
8.37752833113e-05 -1.42000325001e-06 0
8.62851792849e-05 1.35028138223e-05 0
8.09768366457e-05 2.65595221995e-05 0
7.06261085699e-05 3.7268282727e-05 0
5.75651179051e-05 4.48492363309e-05 0
4.46018732396e-05 4.98436625373e-05 0
3.21197959109e-05 5.27123714861e-05 0
2.09831555171e-05 5.38362129767e-05 0
1.147586441e-05 5.42407378038e-05 0
3.37578783275e-06 5.42511297411e-05 0
-3.648252661e-06 4.72530349218e-05 0
-3.60115430414e-06 4.05856843163e-05 0
-3.7856300256e-06 3.43324755835e-05 0
-4.35345393068e-06 2.85032553315e-05 0
-5.47817322155e-06 2.30303664982e-05 0
-7.30435216002e-06 1.76022254237e-05 0
-9.93353230599e-06 1.24015480185e-05 0
-1.34371724024e-05 6.76085024959e-06 0
-1.79641506264e-05 8.95923022255e-07 0
-2.33183190135e-05 -5.83500547086e-06 0
-2.98546706519e-05 -1.31020329556e-05 0
-3.74175798466e-05 -2.17780268327e-05 0
-4.6370957704e-05 -3.16709578013e-05 0
-5.64196477269e-05 -4.32901704442e-05 0
-6.7366130093e-05 -5.68219382131e-05 0
-8.00466566334e-05 -7.23596051229e-05 0
-9.35830769222e-05 -9.02880685005e-05 0
-0.000108128487533 -0.000111358337196 0
-0.00012434157126 -0.000135741944529 0
-0.000142496137267 -0.000163360793437 0
-0.000161326250265 -0.00019573841134 0
-0.000182392380623 -0.000232721631411 0
-0.000203678463004 -0.000275195098829 0
-0.000226080418041 -0.000324248798516 0
-0.000250773426 -0.000379017115671 0
-0.000275896836079 -0.00044213348585 0
-0.000303905500933 -0.00051407949365 0
-0.000331609868099 -0.000596578082281 0
-0.000362319144487 -0.000691886401631 0
-0.000391543236509 -0.000801209188789 0
-0.000423571893733 -0.000926208711301 0
-0.000457694885611 -0.00107483543009 0
-0.000488777673368 -0.00124863245944 0
-0.000526849596932 -0.00146103094697 0
-0.000555146685022 -0.00171868941287 0
-0.00058809347495 -0.00206702158556 0
-0.000581850101009 -0.0025323026529 0
-0.000486794192859 -0.00336085106236 0
-0.000264300751454 -0.00414157528623 0
2.86465694555e-05 -0.00439901895037 0
0.000301971264317 -0.00414303208704 0
0.000522236995582 -0.00336318194024 0
0.000617716895564 -0.00254437856376 0
0.000609009838395 -0.00206086599368 0
0.000580785523189 -0.0017237881197 0
0.000544404186738 -0.00146053883885 0
0.000506664299214 -0.00124868304116 0
0.000470789120578 -0.00107325301251 0
0.000439535739589 -0.000925420450108 0
0.000405636528976 -0.000798740785345 0
0.00037451505837 -0.000689401179687 0
0.000344453716868 -0.000595284644616 0
0.000316481802565 -0.000513153115044 0
0.000288654728753 -0.000440611586577 0
0.000263060221175 -0.000377018325296 0
0.000237297922683 -0.000321766839404 0
0.000214146508064 -0.000273456827368 0
0.000191980546595 -0.000231749830308 0
0.000172089529172 -0.000194683404474 0
0.000152732473588 -0.000162553755821 0
0.000134449409383 -0.000134762080279 0
0.00011826624614 -0.000110412053172 0
0.000103136764138 -8.96620362318e-05 0
8.95073128005e-05 -7.14311895687e-05 0
7.68877318119e-05 -5.59261894425e-05 0
6.59154380694e-05 -4.23412659083e-05 0
5.58633193588e-05 -3.08878669724e-05 0
4.72249866176e-05 -2.07191842423e-05 0
3.95680250185e-05 -1.20490661637e-05 0
3.29124817477e-05 -4.55565323251e-06 0
2.7579943533e-05 2.29412382271e-06 0
2.3082362242e-05 8.29605791207e-06 0
1.95952898605e-05 1.41768889809e-05 0
1.69606015511e-05 1.96005282565e-05 0
1.51495463308e-05 2.52398563664e-05 0
1.4038688098e-05 3.09455998715e-05 0
1.3481440174e-05 3.70179843347e-05 0
1.33027736286e-05 4.35195117148e-05 0
1.33526110013e-05 5.04370011087e-05 0
6.07852999277e-06 5.7684104189e-05 0
-2.29621833718e-06 5.76774755549e-05 0
-1.21083220443e-05 5.72807313589e-05 0
-2.35915429678e-05 5.61710106447e-05 0
-3.64754543506e-05 5.33237218842e-05 0
-4.99274880379e-05 4.8348842743e-05 0
-6.35677133209e-05 4.07710195132e-05 0
-7.46557561867e-05 3.00375707452e-05 0
-8.08702352333e-05 1.68644134116e-05 0
-7.94561119755e-05 1.65095025507e-06 0
-6.48578056941e-05 -1.12147212612e-05 0
-3.82711369493e-05 -1.63885663221e-05 0
-0.000114940976383 -2.27625909733e-05 0
0.000122059488287 -2.3593722399e-05 0
-0.000220739320009 -0.000286881189834 0
-0.000160393006198 -0.00105894592514 0
0.000265399240805 -0.000747112940724 0
0.000148727122834 -0.000190965262009 0
-4.28784684532e-05 1.73997425492e-05 0
5.0888065898e-05 1.55340162137e-05 0
-8.2314513016e-05 -0.000107414654097 0
-0.000212269418323 -0.00076154876246 0
0.000154386204531 -0.00173473078261 0
0.000144319532637 -0.000526861193124 0
-3.86530892909e-05 -1.80077013529e-05 0
4.71370654132e-05 -1.94830745762e-05 0
-3.84254019225e-05 -0.000275901219304 0
-0.000215969560204 -0.00162993929022 0
0.000171136996452 -0.00113135987806 0
2.63029309358e-05 -8.7947019222e-05 0
8.10064709793e-06 -0.000284971206762 0
1.14741900046e-05 -0.00053170148977 0
-4.63968526899e-05 -0.00265618676637 0
-1.32481322322e-05 3.34835646448e-05 0
2.20895280315e-05 3.09408879218e-05 0
9.65487156651e-05 6.69801916893e-06 0
-9.07392633617e-05 8.30631647975e-06 0
9.21464264677e-06 -6.92863351389e-05 0
0.00022601738778 -0.000234601006753 0
-7.74849191307e-06 3.42026184703e-06 0
1.57274672813e-05 2.35112005293e-06 0
-2.57135836122e-05 -0.000981597079562 0
0.000200120284498 -0.00208649567118 0
0.000114720209647 -0.000890642302018 0
-0.000252799456942 -0.000558352958541 0
3.59846499763e-05 -0.000165869501365 0
-0.000170120773708 -0.000100050692252 0
-2.66592789911e-05 -0.000730394209363 0
0.000176850266578 -9.3093783031e-05 0
-3.65871142493e-05 -0.000168233504052 0
-6.38899582601e-06 -4.13701122595e-05 0
-5.10199453173e-06 1.86756239881e-05 0
1.4092121004e-05 1.6835889428e-05 0
0.000245246411502 -0.000374586090264 0
-7.38789006211e-05 -0.00046190553356 0
1.49063158791e-05 -2.92264486609e-05 0
0.000122846193365 -7.19390845517e-05 0
-9.57558479045e-05 -0.00170773771695 0
-0.000169955539571 -0.000444910710945 0
-9.30840768616e-05 -9.02038967432e-06 0
9.55274231285e-05 -1.00389275567e-05 0
0.000164070511534 -0.000386128464201 0
-0.000190636770744 -0.000183172430755 0
-6.16451455952e-05 -0.000499449073426 0
9.16013349036e-05 -0.000334119142006 0
-0.000117752595171 -0.00222556904732 0
-7.52068581578e-05 -8.98166443745e-08 0
8.38127043212e-05 -2.80865379158e-06 0
-2.45220188958e-05 -0.00135635321056 0
-4.42360893495e-05 3.25306516872e-05 0
5.2175855425e-05 2.98877545628e-05 0
-3.94703722261e-05 -9.09739756348e-05 0
-9.88639404737e-05 -4.77050710716e-05 0
-0.000136459732805 -4.15692411955e-05 0
-0.000149140463975 -7.94929966798e-05 0
0.000151437930083 -0.0028889882158 0
0.000119505168491 -0.00074071588511 0
9.92939980242e-05 -0.00133727813028 0
-4.76165901568e-06 -1.60208361702e-05 0
0.000269957676483 -0.00110762958655 0
-0.000136919079042 -0.000217722082811 0
-0.000248801337 -0.00117356996176 0
6.25793463875e-05 -0.000115398558778 0
7.17585073818e-05 -0.000158158107492 0
-9.01069293323e-05 -0.000239242043137 0
2.11394502021e-05 -1.18579604988e-05 0
-0.000155139634143 -0.000317498142699 0
0.000228896789895 -0.000820520342181 0
0.000138546531487 -0.000321333245076 0
8.81326202303e-05 2.39881955235e-06 0
-8.43930561123e-05 3.92054679343e-06 0
0.000162017772835 -0.000469684584413 0
0.000117310236874 -0.00024367466649 0
-9.12924921167e-05 -0.00319115500777 0
7.92836365804e-05 2.08711013016e-05 0
-7.24632663052e-05 2.33248179705e-05 0
-0.000169639311047 -0.000980217634898 0
4.86092774398e-05 -5.80968577723e-05 0
0.000135611159124 -3.68090546247e-05 0
-0.000121946345984 -0.000333519265273 0
0.000216327320194 -0.0001999458011 0
-3.98125394218e-05 -0.00186842085467 0
8.74562782186e-06 8.06810735809e-06 0
-1.86743867415e-06 5.74180414603e-06 0
-7.65555662423e-07 4.25780689795e-05 0
9.98965346755e-06 3.9677854526e-05 0
6.96420408067e-05 -5.33661141359e-05 0
8.94020533634e-05 -2.18068408786e-05 0
0.000247221766107 -0.001532179291 0
4.62042136044e-05 -0.00137972245897 0
-0.000250151616292 -0.000555795388081 0
0.000252161351339 -0.00041764987261 0
-5.62745309965e-05 -0.000174427413299 0
0.000149908976711 -8.64456898471e-05 0
-0.000207131939977 -0.00115563253835 0
2.64186039139e-06 2.87578661967e-05 0
6.64283259493e-06 2.64306445872e-05 0
6.65872440619e-05 -0.00043000027019 0
-4.32841897695e-05 4.50532873161e-06 0
5.13124855059e-05 3.27604988152e-06 0
-4.50139132898e-05 -4.92437725105e-05 0
0.000190333832602 -0.000986959307189 0
-0.000180560252987 -0.000635279122458 0
-0.000176819514185 -0.000620139726524 0
-0.000209086316633 -0.00017309512464 0
-2.80811846687e-05 -3.10737758221e-05 0
0.000175584529203 -0.000221285980456 0
-7.03395942446e-05 1.42995663837e-05 0
7.75568630634e-05 1.24639377244e-05 0
-4.28326943913e-05 -5.7962209929e-05 0
-7.84755961317e-05 -0.000136672613775 0
-1.50567745617e-05 -0.000112397739622 0
0.000101250747918 -0.000168223299693 0
-1.02913332605e-05 -5.98645102125e-06 0
0.000169054584789 -0.000121606230961 0
-0.000144786239993 -0.000121791915793 0
-9.53184515411e-05 -0.000738702847481 0
0.000147041883215 -0.00222593355809 0
-0.000105453688021 -5.78182012092e-06 0
0.000110321365126 -6.58928883346e-06 0
5.27009092026e-05 -0.000405741947014 0
0.000227928583389 -0.000527763011301 0
-2.42999657483e-05 2.47839126013e-05 0
3.2825851756e-05 2.26252932812e-05 0
8.65984151392e-05 -0.000102456785229 0
0.000202332976366 -0.000677878812439 0
-0.000241892181027 -0.000325326918862 0
0.00014983554346 -6.003818732e-05 0
-4.03267588903e-05 -0.000865426656323 0
0.000149502007117 -0.00078073659707 0
-0.000249011992917 -0.000843374234189 0
-9.90438939927e-06 -9.93882426124e-06 0
9.16706943085e-05 1.14210662134e-05 0
-8.62777474646e-05 1.3696502493e-05 0
-2.17808452798e-05 1.32268896205e-05 0
3.13106927138e-05 1.17412742492e-05 0
-1.82043734573e-05 -0.000397172151455 0
-0.000176802002708 -0.00217911862945 0
-2.66802288863e-05 4.08687540122e-05 0
3.51401816766e-05 3.7953595352e-05 0
0.000131286967334 -0.00174670524694 0
-7.59467711955e-05 -1.76776177955e-05 0
0.000190750688281 -0.00128929259834 0
-0.000136415400284 -5.71319255845e-05 0
0.000100744279407 -3.75438233035e-05 0
3.93251082767e-05 -0.000565235385178 0
-0.000111893256529 -0.00165637881753 0
3.62833715561e-05 -3.1611054804e-05 0
-0.00026096496587 -0.000833446351718 0
0.000197397434357 -0.000583122914767 0
8.28763252274e-06 -0.0035963214697 0
3.49496593818e-05 -0.00244379844367 0
5.90589661325e-06 1.80889321534e-05 0
3.39563484934e-06 1.62032044386e-05 0
6.81464515761e-05 -8.09831446434e-05 0
0.000132396610627 -0.00010427730571 0
-0.000166197246433 -0.000464507876977 0
1.88417903135e-05 -2.45493550663e-06 0
-0.000104705363124 -0.000193288201527 0
-0.000130634637172 -0.000304991974932 0
2.78517828021e-05 -8.18876739495e-06 0
-0.000217253428203 -0.00152001628603 0
-7.83394147178e-05 -1.84916551786e-05 0
1.9122661734e-05 -0.000234265384053 0
0.000173793427999 -0.00156252942689 0
-0.000208700022419 -0.000804048026853 0
8.5858532439e-05 -1.82248458841e-05 0
-3.9813796249e-06 -0.00206496298559 0
-0.000129122351221 -0.000560386896741 0
-5.04545822477e-05 -2.6567591055e-06 0
5.21922626696e-05 -3.20908625575e-06 0
-1.25437541518e-05 -4.34106146378e-05 0
2.55310482139e-05 -4.94303552383e-05 0
0.000199441933214 -0.000289344192474 0
-9.8200469379e-05 -3.8021491457e-05 0
3.73566491007e-05 -0.000955041426803 0
-0.000107864163636 -0.00127420948857 0
9.5690853607e-05 -0.000247260760338 0
-0.000193607772295 -0.000177485776718 0
-1.16689907459e-05 -0.000117468105638 0
0.000237750419121 -0.000947629827048 0
-5.71167234473e-05 2.17779105155e-05 0
6.46555234292e-05 1.96416857163e-05 0
-0.000216689564233 -0.000347778579891 0
1.95633846198e-05 -0.000201487678558 0
0.00016134112535 -0.000339687946163 0
-9.08143465792e-05 2.6554556646e-06 0
3.74324855e-05 -0.00218645603394 0
9.72601750777e-05 1.2230586818e-06 0
6.82808240111e-05 2.95765223381e-05 0
-6.10031250356e-05 3.24508028516e-05 0
-3.52994710366e-05 -0.000360638186748 0
1.29097092273e-05 -2.36902983528e-05 0
-1.5058023128e-05 -6.74838296092e-05 0
-0.000129520529777 -0.000140626556977 0
-0.000203681495806 -0.00133615282479 0
0.000198229488887 -0.00013499418476 0
1.05489410549e-06 -0.000217992860453 0
6.84106825301e-05 -7.9197714446e-06 0
0.000267109427594 -0.000529987889439 0
-0.000122422893955 -2.47139045526e-05 0
-5.23497921099e-05 -3.00858663921e-06 0
5.44597637906e-05 -4.26966166099e-06 0
-0.000127685677 -8.64147451115e-05 0
-0.000108991072313 -7.97132571648e-05 0
2.84074518469e-06 3.57994604908e-05 0
6.48181721197e-06 3.31712257215e-05 0
-1.37485892924e-05 4.56351125399e-05 0
2.25824866633e-05 4.25870993425e-05 0
-7.92820959352e-05 -0.000228368693994 0
-3.97254538644e-05 -7.15417599643e-05 0
-0.000163713648365 -7.91316029814e-05 0
-0.000227925335247 -0.000394469626726 0
-8.87009610777e-05 -0.00129988122104 0
7.89008699791e-05 -0.000236334528495 0
0.000121835821533 -4.17230277697e-05 0
-5.82863222307e-05 9.76795803228e-06 0
-7.26835482579e-05 -9.46827680953e-05 0
6.59605228981e-05 8.9511241937e-06 0
0.000143485642954 -0.000120716179762 0
0.000250241959963 -0.00106229659305 0
-0.000161178393949 -0.000294644435138 0
2.9602217447e-05 -0.0017517052449 0
-0.000199790054951 -0.000579557478129 0
-2.35237870392e-05 -2.06243161112e-05 0
-9.9152799102e-06 2.60509649068e-05 0
1.88257742885e-05 2.38530917735e-05 0
0.000247232275249 -0.000825923670417 0
0.000253732943606 -0.00118273942428 0
0.000186606086401 -0.000432859748122 0
-2.489469315e-05 3.23062317205e-05 0
3.34082066701e-05 2.97884820429e-05 0
-9.50888986948e-05 3.43912072106e-06 0
9.97981115662e-05 2.04811144993e-06 0
-3.15772014967e-05 -0.00350317107222 0
0.000225281380073 -0.00191157960904 0
0.000100970346245 -0.000137133043041 0
3.43081373158e-06 4.79572059061e-05 0
5.93360979536e-06 4.48596432026e-05 0
0.000271247679478 -0.00084351395947 0
-0.000144775538908 -0.000939521129035 0
-4.53803394098e-05 -4.6153431974e-05 0
-4.66843972072e-05 -5.73690845819e-06 0
0.000242258014423 -0.000281651262348 0
-6.75989643004e-06 1.26189994704e-05 0
1.2798731781e-05 -0.000152440827856 0
1.69873191598e-05 1.04520327892e-05 0
0.000137734391989 -0.000204960885033 0
0.000243904418264 -0.00140359104759 0
-6.2390348999e-05 -0.000285245394412 0
-0.000251881300059 -0.00100184067575 0
0.000115661471753 -0.000176758682928 0
-0.000106409557685 -0.000156070019582 0
-2.37609647063e-05 -1.13189934628e-06 0
0.000124549631461 -2.08694666612e-05 0
-1.22396036751e-05 -6.60125501138e-07 0
-0.000104203889572 -0.000385939712097 0
-0.000173850043271 -0.0018645792466 0
-0.000185388829649 -0.000289667146395 0
3.9696115132e-05 -2.33015419318e-05 0
2.01752448829e-05 -0.000649975801809 0
8.58389849624e-05 -0.00271694399792 0
-0.000196492472813 -0.00127285778328 0
2.50766669275e-05 -9.41358308319e-05 0
0.000220062597865 -0.00144704264838 0
-0.000240507327635 -0.00137895943245 0
-3.90129851897e-05 4.02961208851e-05 0
4.70976543443e-05 3.73158083406e-05 0
-5.98521253508e-05 -0.000576938380097 0
0.000244532976362 -0.000577321361836 0
5.86372025081e-05 -8.5593204806e-06 0
-6.93757060194e-05 -7.35849286477e-05 0
5.52606454473e-05 -4.48922111435e-05 0
-9.27361343013e-05 -1.14518179912e-05 0
-1.27078685415e-05 -2.06815543651e-05 0
-0.000254642548871 -0.000429078784272 0
-8.76930041928e-05 -0.000235578348135 0
-6.0737414227e-05 -2.93127246277e-05 0
-5.39229840439e-05 -7.73781954644e-06 0
0.000176975176841 -0.000291974297025 0
0.000210904239555 -0.000399357204063 0
8.5401451206e-05 -0.00280810225022 0
7.15290435061e-05 -0.000315501300628 0
-4.15432788697e-05 2.54536719164e-05 0
4.96129854933e-05 2.32090442671e-05 0
8.81641575182e-05 5.17556725993e-06 0
-8.38322497654e-05 7.33373294287e-06 0
0.000101558980216 -1.31926551471e-05 0
-8.79080596748e-06 -0.00110493004701 0
-0.000302771221 -0.00115373449582 0
1.3852366694e-05 1.26535065969e-05 0
-4.69057746229e-06 1.07249224756e-05 0
-0.000152251145668 -6.45736718068e-05 0
8.80434362533e-05 -0.000106527863342 0
-0.00029974633091 -0.00155950468038 0
2.31310905834e-06 -6.51141469768e-06 0
6.33297376077e-05 -0.000408267284298 0
-0.000164872298893 -0.00239291010604 0
-0.000194301500324 -0.000400812021203 0
9.45917733199e-06 2.2894170363e-05 0
-1.75705129614e-08 2.08054552481e-05 0
-2.68225996624e-05 -0.000231442052529 0
0.000101845719518 -4.46503278609e-05 0
0.000236281415803 -0.000687295923084 0
0.0002170437982 -0.00038420212336 0
0.000147635497056 -5.80468923044e-05 0
4.91046039267e-05 -0.000118454792436 0
-0.000233028341103 -0.000541229401503 0
-0.000184736572385 -0.000139951414147 0
3.53109344494e-05 -2.96884917833e-05 0
9.79317399983e-05 -0.00054260107521 0
-4.23167146997e-05 -0.00306243334587 0
6.57797972769e-06 -2.96780482273e-06 0
-0.000187164148912 -0.0019761409338 0
1.2957155278e-05 -4.28211297711e-05 0
6.58219415769e-05 -3.12980217983e-05 0
4.50260631632e-05 -0.000716563181618 0
0.000110533605227 -9.0884106569e-06 0
-6.46707693753e-05 -7.45485072073e-05 0
-0.000130604241146 -0.000821804040882 0
0.000182781873562 -0.000667838480885 0
-0.000228711213785 -0.000252126977021 0
2.53264971042e-05 -0.000293471717663 0
-9.1370225889e-05 -0.000120529388247 0
3.42435824013e-05 -2.26463141166e-07 0
-0.00010423700105 -7.6631849768e-06 0
0.000129779346714 -0.000679864728594 0
-0.000143061002294 -0.000241938359338 0
-0.000125369999329 -0.000441970318184 0
7.77479388274e-05 2.62546148468e-05 0
-7.09933687401e-05 2.92180476399e-05 0
7.28723358499e-05 -0.00116604626136 0
0.000118220661477 -0.000407620299429 0
7.83424352405e-05 -0.000195052386295 0
0.00019728385575 -0.00018130819972 0
-0.000108163518262 -2.08120596923e-05 0
2.92544967245e-05 -9.50547660319e-06 0
-8.34395889338e-05 -4.00690470004e-05 0
0.000170273646078 -0.00247640967334 0
8.62700774717e-05 -0.000884522615685 0
5.32651897268e-05 -0.00113763792071 0
6.92108422599e-05 -6.81647973083e-05 0
-1.71158718215e-06 -0.000187404684359 0
3.4220957774e-07 2.2818050221e-05 0
3.80994891509e-05 -7.26473334527e-05 0
8.84317103399e-06 2.07543469509e-05 0
6.12316010077e-05 -8.14841833063e-05 0
0.000248968972194 -0.000528853623018 0
6.91434801688e-06 -0.00366037632568 0
-6.0966085163e-05 -0.00085553021967 0
-0.000102510890144 -3.04791358118e-05 0
-0.000217769981064 -0.000464183332546 0
0.000257732213788 -0.000691317513989 0
0.000108207483431 -0.000194206807116 0
0.000112870794946 -0.000140241686308 0
-0.000141993948378 -0.000532275936574 0
7.03562264657e-05 -0.00164208497766 0
3.46055573059e-05 -0.000131448416263 0
8.83724036149e-07 4.19040024526e-07 0
-0.000146887562041 -8.77158758393e-05 0
-0.000211389133528 -0.00216248716639 0
-0.000133429469845 -3.78498035464e-05 0
8.64695563806e-05 -4.12673374432e-05 0
8.08180983226e-06 -1.68023994276e-05 0
3.57010496335e-06 1.42010822159e-05 0
5.79637848175e-06 1.11819662076e-05 0
0.000176904295124 -0.00107088691516 0
7.47635682747e-06 4.09876002585e-05 0
2.01276872528e-06 3.81511872361e-05 0
-0.000283104632011 -0.000913882719784 0
2.08914610659e-05 1.51983206829e-06 0
-8.05301443981e-05 1.52688909234e-05 0
8.70442057902e-05 1.33209497835e-05 0
0.000193883044908 -0.000135776111363 0
-0.000117389896611 -0.000401303906617 0
-5.54275557973e-06 -8.85593623283e-05 0
3.31532625263e-05 -4.22494122795e-05 0
0.000126292886601 -0.0014976007236 0
-7.03677894834e-05 -0.00012408669009 0
6.73292800733e-05 -0.000690425175702 0
-0.000192334088725 -0.00134814309659 0
-0.000244224479139 -0.000708019324143 0
-6.18271762008e-05 -0.000475036929325 0
-0.000105898246151 -0.00225563966738 0
-5.0044565945e-06 4.95676469649e-05 0
1.41010463056e-05 4.64015606747e-05 0
-0.000186905936819 -0.000216197574757 0
-4.5931373763e-05 -0.000116766599266 0
-1.8171151572e-05 1.91125330144e-05 0
0.000327450235269 -0.000988536598411 0
2.69443159479e-05 1.72388293026e-05 0
-2.51661430642e-05 -4.16466020661e-05 0
0.000188205112597 -0.00237366064418 0
-0.000184540494586 -0.000118823158851 0