# vtk DataFile Version 2.0
Generated with Solid Solver
ASCII
DATASET UNSTRUCTURED_GRID
POINTS 856 float 
0.0 3.5 0.0
1.6 3.5 0.0
1.6 4.0 0.0
0.0 4.0 0.0
0.0695652173912 3.5 0.0
0.139130434782 3.5 0.0
0.208695652174 3.5 0.0
0.278260869565 3.5 0.0
0.347826086956 3.5 0.0
0.417391304347 3.5 0.0
0.486956521738 3.5 0.0
0.556521739129 3.5 0.0
0.62608695652 3.5 0.0
0.695652173911 3.5 0.0
0.765217391302 3.5 0.0
0.834782608694 3.5 0.0
0.904347826085 3.5 0.0
0.973913043477 3.5 0.0
1.04347826087 3.5 0.0
1.11304347826 3.5 0.0
1.18260869565 3.5 0.0
1.25217391304 3.5 0.0
1.32173913043 3.5 0.0
1.39130434783 3.5 0.0
1.46086956522 3.5 0.0
1.53043478261 3.5 0.0
1.6 3.56430812594 0.0
1.6 3.62270835268 0.0
1.6 3.6757434324 0.0
1.6 3.7239062376 0.0
1.6 3.76764438351 0.0
1.6 3.80736436404 0.0
1.6 3.84343531219 0.0
1.6 3.87619247117 0.0
1.6 3.90594026707 0.0
1.6 3.93295517284 0.0
1.6 3.95748825478 0.0
1.6 3.97976750982 0.0
1.58000000587 4.0 0.0
1.55999996633 4.0 0.0
1.54000002214 4.0 0.0
1.51999997198 4.0 0.0
1.50000000455 4.0 0.0
1.48000000216 4.0 0.0
1.45999997931 4.0 0.0
1.44000002484 4.0 0.0
1.41999997044 4.0 0.0
1.40000002096 4.0 0.0
1.37999999963 4.0 0.0
1.35999999626 4.0 0.0
1.34000002179 4.0 0.0
1.31999997343 4.0 0.0
1.3000000318 4.0 0.0
1.27999998783 4.0 0.0
1.26000000202 4.0 0.0
1.24000001295 4.0 0.0
1.21999998074 4.0 0.0
1.20000003685 4.0 0.0
1.17999998163 4.0 0.0
1.16000001473 4.0 0.0
1.14000000469 4.0 0.0
1.11999999139 4.0 0.0
1.10000003625 4.0 0.0
1.07999997877 4.0 0.0
1.06000002802 4.0 0.0
1.04000000338 4.0 0.0
1.02000000764 4.0 0.0
1.00000002986 4.0 0.0
0.979999980237 4.0 0.0
0.960000035522 4.0 0.0
0.939999990881 4.0 0.0
0.920000014619 4.0 0.0
0.900000017903 4.0 0.0
0.879999986222 4.0 0.0
0.860000037278 4.0 0.0
0.839999982352 4.0 0.0
0.820000022783 4.0 0.0
0.800000000002 4.0 0.0
0.779999977222 4.0 0.0
0.760000017652 4.0 0.0
0.739999962726 4.0 0.0
0.720000013782 4.0 0.0
0.699999982101 4.0 0.0
0.679999985385 4.0 0.0
0.660000009123 4.0 0.0
0.639999964482 4.0 0.0
0.620000019766 4.0 0.0
0.599999970141 4.0 0.0
0.57999999236 4.0 0.0
0.559999996622 4.0 0.0
0.539999971983 4.0 0.0
0.520000021235 4.0 0.0
0.499999963756 4.0 0.0
0.480000008612 4.0 0.0
0.459999995315 4.0 0.0
0.439999985272 4.0 0.0
0.420000018371 4.0 0.0
0.39999996315 4.0 0.0
0.380000019261 4.0 0.0
0.359999987052 4.0 0.0
0.339999997986 4.0 0.0
0.320000012172 4.0 0.0
0.299999968206 4.0 0.0
0.280000026575 4.0 0.0
0.259999978213 4.0 0.0
0.240000003742 4.0 0.0
0.220000000371 4.0 0.0
0.199999979041 4.0 0.0
0.180000029557 4.0 0.0
0.159999975162 4.0 0.0
0.140000020694 4.0 0.0
0.119999997846 4.0 0.0
0.0999999954514 4.0 0.0
0.0800000280232 4.0 0.0
0.0599999778571 4.0 0.0
0.0400000336732 4.0 0.0
0.0199999941324 4.0 0.0
0.0 3.97976750982 0.0
0.0 3.95748825478 0.0
0.0 3.93295517284 0.0
0.0 3.90594026707 0.0
0.0 3.87619247117 0.0
0.0 3.84343531219 0.0
0.0 3.80736436404 0.0
0.0 3.76764438351 0.0
0.0 3.7239062376 0.0
0.0 3.6757434324 0.0
0.0 3.62270835268 0.0
0.0 3.56430812594 0.0
0.249757905714 3.75212552678 0.0
1.35000000902 3.74954526597 0.0
0.488714190926 3.75947467509 0.0
0.727445026698 3.75983525744 0.0
0.962900270309 3.76055270856 0.0
1.17161197633 3.81755162829 0.0
0.130754031542 3.86878251069 0.0
1.46924596846 3.86878251069 0.0
0.369913852535 3.84868154079 0.0
0.603236233099 3.84763103091 0.0
0.843402107212 3.84736931152 0.0
1.05041705507 3.86611282467 0.0
0.250539323282 3.87785527135 0.0
1.34882231626 3.87787871523 0.0
0.468661896861 3.89189320321 0.0
0.704258117309 3.89639128976 0.0
0.94963922804 3.89654080835 0.0
1.25000000748 3.89875296068 0.0
1.12879020517 3.91059303421 0.0
0.548928478218 3.91905583534 0.0
0.7889268651 3.91906062813 0.0
0.0712526194949 3.93011432704 0.0
1.52874738051 3.93011432704 0.0
1.4740071133 3.74293106904 0.0
0.125992886699 3.74293106904 0.0
0.329956761073 3.92118145982 0.0
1.09412206522 3.66725831207 0.0
0.190000004299 3.92542384899 0.0
1.41098423528 3.92728100222 0.0
0.629999992124 3.92414139091 0.0
0.87000001175 3.92414140592 0.0
0.853391941071 3.71944243214 0.0
0.610032822379 3.72536074396 0.0
0.41090315692 3.92892991009 0.0
0.370435019193 3.7251305208 0.0
1.01000001875 3.93130199947 0.0
1.22823348571 3.68694249365 0.0
1.18894423177 3.93487447818 0.0
1.31063576122 3.93502724255 0.0
0.129927636183 3.94112156482 0.0
1.47007236382 3.94112156482 0.0
1.07646504896 3.76194504855 0.0
1.07000000339 3.94017719684 0.0
0.270000002394 3.93875928556 0.0
1.26759839792 3.80243333593 0.0
0.770332946246 3.83880063275 0.0
0.530342720064 3.83880306325 0.0
0.189898092614 3.63474333735 0.0
1.4101772205 3.6313147556 0.0
0.942883893479 3.62966700486 0.0
0.510631148905 3.62429064243 0.0
0.754670889573 3.63369080225 0.0
0.489999986184 3.94463854908 0.0
0.732500655853 3.9452729887 0.0
0.193627936713 3.81528931126 0.0
1.40183871842 3.81461096917 0.0
0.928721275957 3.94715071018 0.0
0.0604617896557 3.86281267064 0.0
1.53953821034 3.86281267065 0.0
1.25036152032 3.94913766834 0.0
0.30096552553 3.81141484704 0.0
0.297089357677 3.66359682597 0.0
0.394212311705 3.61316974741 0.0
0.831051681923 3.94633984116 0.0
0.592085081305 3.94901138542 0.0
0.669405291514 3.95495209798 0.0
1.3611855791 3.94637621082 0.0
0.928496698914 3.82436133158 0.0
0.444093171593 3.8271987226 0.0
0.683378885111 3.8234871366 0.0
0.372430737197 3.95235208784 0.0
1.19348789949 3.87019408468 0.0
1.15124363553 3.95467023547 0.0
0.229287653728 3.96038323295 0.0
0.646635519079 3.61231195482 0.0
0.986819459779 3.84973028271 0.0
1.11214815433 3.84770266014 0.0
1.50610225987 3.6604664246 0.0
0.0938977401332 3.6604664246 0.0
0.531976760298 3.96138656711 0.0
0.451361041931 3.96112773652 0.0
0.771976835888 3.96138886125 0.0
1.53311213884 3.79435404356 0.0
0.066887861162 3.79435404356 0.0
0.970836553066 3.9620233382 0.0
0.311702426505 3.96111572975 0.0
1.31698094247 3.6658628839 0.0
1.11177843379 3.95948388532 0.0
1.15003411964 3.72957279566 0.0
0.890058924798 3.96133576813 0.0
0.169108880648 3.96040269401 0.0
1.42850737314 3.96465656678 0.0
0.0426347993992 3.9610175717 0.0
1.5573652006 3.9610175717 0.0
1.28993057938 3.85776473604 0.0
1.34652710411 3.82072629166 0.0
0.897316840472 3.87585124602 0.0
0.814484972147 3.79171515708 0.0
0.573290986674 3.7879873938 0.0
1.02164717476 3.69631051635 0.0
0.41798215839 3.87594988344 0.0
1.18469655214 3.6045863568 0.0
0.657426542805 3.87734841349 0.0
0.0893439701605 3.9657484063 0.0
1.51065602984 3.9657484063 0.0
0.850202761783 3.61862953305 0.0
0.185775988195 3.86980628439 0.0
1.41422401181 3.86980628439 0.0
0.305957202498 3.87340573583 0.0
0.629999992124 3.96272981278 0.0
0.686026569054 3.68766751472 0.0
1.03220081924 3.96436031967 0.0
0.445441337222 3.69456289967 0.0
1.33308537187 3.96770341358 0.0
1.0249206042 3.60512275769 0.0
0.128645746764 3.81165411571 0.0
1.47135425324 3.81165411571 0.0
1.29077706219 3.96625078806 0.0
1.21302440104 3.96491551313 0.0
0.373320303365 3.89968789902 0.0
0.409457647309 3.96502881891 0.0
1.39076199588 3.96614348387 0.0
1.2156032112 3.76624353786 0.0
0.383301616321 3.78976397621 0.0
0.593246012246 3.8948346816 0.0
0.833004203108 3.89475034107 0.0
0.187583903859 3.70688411961 0.0
1.41241609614 3.70688411961 0.0
1.08573330585 3.89673930733 0.0
1.04303343403 3.81530385578 0.0
0.103644791029 3.90516202075 0.0
1.49635520897 3.90516202075 0.0
1.23586605501 3.85112068621 0.0
0.921814270996 3.70213058021 0.0
0.532219762185 3.7029333087 0.0
1.28217045716 3.7375098981 0.0
0.779621693208 3.70806977531 0.0
0.998890529268 3.88397615296 0.0
0.659406618131 3.76469373474 0.0
0.230043799244 3.91599372373 0.0
1.53690667654 3.72637971331 0.0
0.0630933234627 3.72637971331 0.0
0.153148105836 3.90639761309 0.0
1.4478092366 3.90500627713 0.0
0.512139854501 3.90538519137 0.0
0.750930702019 3.90340708 0.0
0.0409150717909 3.90046251393 0.0
1.55908492821 3.90046251393 0.0
0.702096631597 3.96656725638 0.0
0.246204062466 3.82734823738 0.0
0.872012730916 3.80079945556 0.0
0.313419524246 3.75328100976 0.0
1.26305184675 3.57725747237 0.0
1.04341944162 3.90846795586 0.0
0.697725469476 3.93030230037 0.0
0.27003033309 3.96477332623 0.0
0.632456188669 3.80120134001 0.0
0.55988813035 3.96676596088 0.0
0.798125231733 3.9668778541 0.0
0.861599835739 3.96514225679 0.0
0.130196681328 3.96566148827 0.0
1.46980331867 3.96566148827 0.0
0.337465698618 3.96873835045 0.0
1.10690030388 3.57445060302 0.0
1.07038768144 3.96631210642 0.0
0.201908835349 3.96783542832 0.0
1.17640357301 3.96795841043 0.0
0.482502283815 3.8454083814 0.0
1.37723451734 3.90442225885 0.0
0.722497886517 3.84543272537 0.0
0.254749007352 3.57960328731 0.0
0.449206209982 3.91785378051 0.0
0.907803563184 3.91575967116 0.0
0.997592319531 3.96832081731 0.0
1.3597087328 3.59165409162 0.0
0.797785363131 3.87112617582 0.0
0.557788209884 3.87112741711 0.0
0.133223775006 3.57024633267 0.0
1.46673023696 3.57019175074 0.0
0.296361477075 3.90524448543 0.0
1.29555045611 3.90092076583 0.0
1.11951450862 3.79592056714 0.0
0.341558640376 3.57546927501 0.0
0.974255514016 3.92370320024 0.0
0.664786082443 3.91707165091 0.0
1.1442561544 3.86460464827 0.0
0.430695849932 3.74774845865 0.0
1.22439218721 3.92431164104 0.0
0.917330800791 3.76752811157 0.0
0.0995806821614 3.83759752714 0.0
1.50041931784 3.83759752714 0.0
0.586492545959 3.6571718064 0.0
1.16809690663 3.90376349956 0.0
0.490525946651 3.9687439861 0.0
0.170108846494 3.77025381333 0.0
0.726723612771 3.96611364881 0.0
1.42998397347 3.77014833166 0.0
1.55978981314 3.82099569701 0.0
0.0402101868575 3.82099569701 0.0
1.10043652243 3.92805072974 0.0
1.34111814411 3.91924529479 0.0
1.27430066613 3.93505265881 0.0
0.56431092584 3.57086686051 0.0
0.930516510487 3.96969091611 0.0
1.17713743504 3.67180033503 0.0
0.801256410508 3.5635758738 0.0
1.37979186382 3.84566323689 0.0
1.02277822921 3.7577258162 0.0
0.252009847995 3.68167957306 0.0
0.0497138210057 3.58866012032 0.0
1.55028617899 3.58866012032 0.0
0.466046622144 3.57331739513 0.0
0.343019074867 3.81481221655 0.0
0.0645235269233 3.96909610548 0.0
1.53547647308 3.96909610548 0.0
0.0310141903995 3.92955737583 0.0
[...]
POINT_DATA 856
VECTORS Displacement float
0.0 0.0 0
0.0 0.0 0
-5.25195619194e-05 0.000271852081465 0
7.12511905254e-05 0.000278136912981 0
0.0 0.0 0
0.0 0.0 0
0.0 0.0 0
0.0 0.0 0
0.0 0.0 0
0.0 0.0 0
0.0 0.0 0
0.0 0.0 0
0.0 0.0 0
0.0 0.0 0
0.0 0.0 0
0.0 0.0 0
0.0 0.0 0
0.0 0.0 0
0.0 0.0 0
0.0 0.0 0
0.0 0.0 0
0.0 0.0 0
0.0 0.0 0
0.0 0.0 0
0.0 0.0 0
0.0 0.0 0
0.000194714116567 -8.72812094097e-05 0
0.00032951576729 -6.51151858422e-05 0
0.000404573342327 -3.81985941376e-06 0
0.000413893825443 7.00845202568e-05 0
0.000384717786779 0.000134710561032 0
0.000330730614013 0.00018776378304 0
0.000263409686818 0.00022535780322 0
0.000196722291134 0.000250163083688 0
0.000132532788494 0.000264432836711 0
7.51739410397e-05 0.000270024756902 0
2.60616671499e-05 0.000272028381385 0
-1.58916614237e-05 0.000272063230527 0
-5.23101975746e-05 0.000235744418691 0
-5.20623208301e-05 0.000201102889311 0
-5.29814197066e-05 0.000168512182432 0
-5.58266679295e-05 0.00013800984527 0
-6.14546401414e-05 0.000109241256959 0
-7.05736580851e-05 8.06497863111e-05 0
-8.36973215138e-05 5.31238394376e-05 0
-0.000101148786723 2.33431118908e-05 0
-0.000123686850379 -7.64172657974e-06 0
-0.000150300333806 -4.30187593197e-05 0
-0.000182773540073 -8.11774106786e-05 0
-0.000220294387191 -0.000126460533713 0
-0.000264686744212 -0.000177945600597 0
-0.000314449501529 -0.000238200589762 0
-0.000368565695401 -0.000308129501887 0
-0.000431256768196 -0.000388311232635 0
-0.000498053061846 -0.000480639148733 0
-0.000569687327524 -0.00058890502319 0
-0.000649478498641 -0.000714057344214 0
-0.000738834522859 -0.000855857227929 0
-0.000831244878198 -0.00102189195554 0
-0.000934721487741 -0.0012117927775 0
-0.00103882901177 -0.0014300034117 0
-0.00114808790254 -0.00168240087799 0
-0.00126871019055 -0.00196518321478 0
-0.00139073844098 -0.00229192708167 0
-0.00152731258268 -0.00266677844334 0
-0.001660803687 -0.0030986789972 0
-0.0018098485184 -0.00360388527066 0
-0.00194796269972 -0.00419048105529 0
-0.0020985862659 -0.00487256447933 0
-0.00225842562865 -0.00571283997965 0
-0.0023814920477 -0.00673584312629 0
-0.00249653576185 -0.00810733044641 0
-0.00235669900469 -0.0101581259631 0
-0.00201191011288 -0.012277133831 0
-0.0015680004718 -0.0139087934226 0
-0.00104245701712 -0.0150678235151 0
-0.00049492123734 -0.0157580971123 0
5.36023036423e-05 -0.0159842020978 0
0.000576449643723 -0.0157631549173 0
0.0011279453599 -0.0150719740983 0
0.0016089973276 -0.0139133832636 0
0.00209513165342 -0.0122877189576 0
0.0024191696623 -0.0101659712322 0
0.00252575951123 -0.00808964854007 0
0.0024184053602 -0.00673187444101 0
0.00226608693528 -0.0056972890564 0
0.0021311966642 -0.00487261900073 0
0.00197248106459 -0.00417970857786 0
0.00182592554031 -0.00359310791607 0
0.00168330000634 -0.003094733131 0
0.00154990378805 -0.00266450095765 0
0.00141596460944 -0.00228652182958 0
0.00129286391182 -0.00195713577632 0
0.0011678631937 -0.00167179973467 0
0.00105575764541 -0.00142330268033 0
0.000948039633768 -0.00120892949567 0
0.000851442341411 -0.00101880708069 0
0.000757099140363 -0.000853974496829 0
0.000667715960124 -0.000711388115587 0
0.000588601058635 -0.000586498038904 0
0.000514517795549 -0.000479917823043 0
0.000447626878385 -0.000386241777785 0
0.000385615358394 -0.000306418482989 0
0.000331651375606 -0.000236431945645 0
0.000282074957676 -0.000177251419084 0
0.00023944170385 -0.000124725797018 0
0.000201553159533 -7.98131075298e-05 0
0.00016857389406 -4.09501983738e-05 0
0.000142116504154 -5.44627385051e-06 0
0.000119737552774 2.57173805259e-05 0
0.000102365260523 5.61239268394e-05 0
8.91891285687e-05 8.41500393567e-05 0
8.01166130984e-05 0.000113134092584 0
7.45228890522e-05 0.000142366333055 0
7.16992433235e-05 0.000173348674281 0
7.07895095478e-05 0.000206424547502 0
7.10409855141e-05 0.000241549611846 0
3.41394941882e-05 0.000278348929189 0
-8.34287294335e-06 0.00027831888143 0
-5.80346106508e-05 0.000276327468944 0
-0.000116036852627 0.000270762833441 0
-0.000180961008599 0.000256551370124 0
-0.000248546577495 0.000231826193069 0
-0.000316941821927 0.000194311380303 0
-0.000372365463848 0.000141320487755 0
-0.000403390995965 7.6561819527e-05 0
-0.000396316994693 2.10434901747e-06 0
-0.000323635819644 -6.02751381116e-05 0
-0.000191229238763 -8.40536247742e-05 0
-0.000570165679904 -0.000131213002644 0
0.000586908802288 -0.000131869675493 0
-0.00107509256866 -0.0014579222659 0
-0.000708766906665 -0.00498342347594 0
0.0012052268259 -0.0036340508127 0
0.000716863961158 -0.000989432970875 0
-0.000213308038189 7.32230148752e-05 0
0.000228707137282 6.99270154222e-05 0
-0.000415693046664 -0.000571154046559 0
-0.00104230425269 -0.00385326889338 0
0.000581571734901 -0.00799298273612 0
0.000710530030775 -0.00270259458028 0
-0.000194238877305 -0.000111967637497 0
0.000210590605961 -0.000115677808246 0
-0.000216014730727 -0.00143483859434 0
-0.000906676917929 -0.00801877192202 0
0.000832470844267 -0.00578016314542 0
0.000109616386765 -0.000469685142748 0
3.49539785636e-05 -0.00147935095542 0
-5.64980884453e-06 -0.00275500780039 0
-0.000113678655669 -0.011512299292 0
-6.39418481939e-05 0.000155497988027 0
8.10000509021e-05 0.000150927309782 0
0.000463110335198 2.80790342378e-05 0
-0.000451546626273 3.09279733559e-05 0
4.05147877784e-05 -0.000377053958489 0
0.00106729123663 -0.00116631214611 0
-3.77950351063e-05 -4.7313140842e-07 0
5.01492636777e-05 -1.08267525817e-06 0
-0.000250357737388 -0.00512262121725 0
0.000654710036209 -0.0100583780975 0
0.000495845108774 -0.00417310144537 0
-0.00118100116512 -0.00272875349764 0
0.000164582561586 -0.000872681051529 0
-0.000835661721011 -0.000521422748288 0
-7.19197170645e-05 -0.00379568333882 0
0.000850482609205 -0.000479025237461 0
-0.00019987026239 -0.000881692006362 0
-5.85150708594e-05 -0.000229619369691 0
-2.32821934592e-05 7.9166731385e-05 0
4.05516219197e-05 7.61393271806e-05 0
0.00116428717233 -0.0018840326073 0
-0.000352448484557 -0.00239225033174 0
7.32013692985e-05 -0.000170112942544 0
0.000588637648873 -0.000383354290518 0
-0.000374195873809 -0.00783878746379 0
-0.000852742393511 -0.00227707184944 0
-0.000460748773543 -5.24614118222e-05 0
0.00046348775742 -5.49476894338e-05 0
0.000747871642582 -0.00184272265601 0
-0.00090857918177 -0.00090691027843 0
-0.000283789195393 -0.00234562168151 0
0.000422462713799 -0.00173616416252 0
-0.000334746045145 -0.0109830336381 0
-0.000374776265084 -1.67883567734e-05 0
0.00039554013295 -2.63513593215e-05 0
5.22946057378e-05 -0.00721820927362 0
-0.000219936638166 0.000151528838927 0
0.000235382433917 0.000146725815815 0
-0.000221573126906 -0.0004853194104 0
-0.000492999281151 -0.000263036803675 0
-0.000670923286105 -0.000220307067074 0
-0.00072376192365 -0.00040358225002 0
0.000231539980667 -0.0125971588158 0
0.000488011025905 -0.00386140316094 0
0.000230273793294 -0.00717239841326 0
-5.26583119692e-05 -9.75849578923e-05 0
0.00118441495181 -0.0053888891939 0
-0.000686588354833 -0.00113026188074 0
-0.00110435292172 -0.00567754812792 0
0.00030415331185 -0.000613596883726 0
0.000340032926238 -0.00082827372242 0
-0.000462957864372 -0.001245640638 0
0.000106874915713 -7.96760126754e-05 0
-0.000718155360345 -0.00151933887471 0
0.00108162930612 -0.00414029733891 0
0.000673211732324 -0.00165499645238 0
0.000426860818314 9.97309640019e-06 0
-0.000419825107742 1.29584438752e-05 0
0.00075861124611 -0.00243730100823 0
0.000565263438664 -0.00127122187677 0
-1.34654277498e-05 -0.0135168643675 0
0.000374558588343 0.00010186836117 0
-0.000361137495027 0.000106400483055 0
-0.000720494723542 -0.00516177456476 0
0.000240428329776 -0.000318824364566 0
0.000655235816811 -0.000193867909961 0
-0.000613481801262 -0.0017302044401 0
0.00103489293972 -0.00101718768235 0
-1.55062809616e-05 -0.0101130850171 0
4.61642484178e-05 2.40586233723e-05 0
-4.05511321861e-05 1.73094408091e-05 0
-6.63976483803e-07 0.000201710339742 0
1.84651824479e-05 0.000196449318039 0
0.000324515488987 -0.000290825932684 0
0.000422962724707 -0.000126258827786 0
0.00100924062004 -0.00744765208975 0
0.000179846019053 -0.00637432226058 0
-0.00120151720939 -0.00278366803257 0
0.00117168181781 -0.00204602280406 0
-0.000293595134985 -0.000915158053317 0
0.000716384845758 -0.000434435187579 0
-0.000997044906772 -0.00581775852352 0
1.64196309122e-05 0.000131170153586 0
1.50095988795e-06 0.000127043301251 0
0.000296971105754 -0.00202070056817 0
-0.000215896631069 5.66131191622e-06 0
0.00023103420703 4.1861698802e-06 0
-0.0002281024063 -0.000273522592024 0
0.000776936250091 -0.00520418158881 0
-0.00082475620089 -0.00302191970108 0
-0.000849825667006 -0.00322059287482 0
-0.00101393670817 -0.000879129153541 0
-0.000170138553852 -0.000175726838914 0
0.000816596460083 -0.00107432896986 0
-0.00035040681939 5.87679948157e-05 0
0.00036480985905 5.53905294182e-05 0
-0.000242207217534 -0.000314959533043 0
-0.000414980002259 -0.000719729317049 0
-8.47502169595e-05 -0.000598524867558 0
0.000493593553218 -0.000884197328416 0
-8.23192338493e-05 -4.46221232247e-05 0
0.000813525551559 -0.00063226085362 0
-0.000718522331144 -0.000639396608055 0
-0.000534166739042 -0.00381101195791 0
0.000448650318597 -0.0100504516801 0
-0.000523176742404 -4.03876669366e-05 0
0.000532340807159 -4.09417085964e-05 0
0.000266721299651 -0.00209674961546 0
0.00108672578916 -0.00266920855258 0
-0.000119866216009 0.000110986730796 0
0.000136302153781 0.000107163196071 0
0.000410586454414 -0.000542533461125 0
0.000907582130743 -0.00322821067661 0
-0.00115492903702 -0.0016193901458 0
0.000721728063975 -0.000317536510704 0
-0.000185713094819 -0.00404255285325 0
0.000746188624466 -0.00400495608035 0
-0.00113617347009 -0.00407315445004 0
-4.97883468952e-05 -7.01450256023e-05 0
0.000440356188091 5.57117643944e-05 0
-0.00042984236875 6.00364597213e-05 0
-0.000107719864582 5.08854253568e-05 0
0.000128998359469 4.90467369186e-05 0
-0.000131354708603 -0.00205809380817 0
-0.00058337816417 -0.0100228802875 0
-0.000131654957156 0.000193422817924 0
0.000148024352385 0.000188119898454 0
0.000309358158404 -0.00960867674218 0
-0.000379124918472 -0.000108895158242 0
0.000794114490085 -0.00606048543982 0
-0.000674979405801 -0.000307121484999 0
0.000485374041519 -0.000191037722063 0
0.000220901860009 -0.00292158444756 0
-0.000561038314234 -0.00853104597047 0
0.000181328508462 -0.000181963280409 0
-0.00121897030737 -0.00410333776669 0
0.000918744944046 -0.00302947620986 0
4.28760159325e-05 -0.0142105150205 0
-3.14741057247e-05 -0.0122024853272 0
3.25539256653e-05 7.61782460086e-05 0
-1.45883203435e-05 7.29194518169e-05 0
0.000336698304701 -0.000436381818175 0
0.000625455894839 -0.000514439024506 0
-0.000821702094549 -0.00240712005629 0
9.64203554859e-05 -3.0626053175e-05 0
-0.000542283620295 -0.00100992344934 0
-0.000662471736274 -0.00157522960885 0
0.000112557584468 -5.67101188453e-05 0
-0.000891885423059 -0.00719584493989 0
-0.000385436117671 -9.69350455494e-05 0
7.24905070798e-05 -0.00122309901081 0
0.000773970705133 -0.00793523361958 0
-0.000972172988377 -0.00420059161329 0
0.000416440449987 -9.4717391159e-05 0
-2.02430135367e-05 -0.00929058332354 0
-0.000672667107361 -0.00287844661748 0
-0.000250275627884 -1.64072986061e-05 0
0.000254146041077 -1.75006889148e-05 0
-6.60366337331e-05 -0.000243714939886 0
0.000103338929445 -0.000271447510729 0
0.000958609212099 -0.00147840942634 0
-0.000478604352102 -0.000194461646699 0
0.000265185945279 -0.00497398778557 0
-0.000618050269583 -0.00659269822338 0
0.000462694636849 -0.0012820047821 0
-0.000948552696563 -0.000912692413502 0
-7.89048598909e-05 -0.000621472591284 0
0.00104685220834 -0.00453216718339 0
-0.000284458457499 9.6859468109e-05 0
0.00029911253731 9.30430754523e-05 0
-0.00101637102124 -0.00169631389411 0
8.41003342483e-05 -0.00105123870157 0
0.000775887036967 -0.00176465203232 0
-0.00045178220812 -2.87434913134e-07 0
0.000135368509506 -0.0114876108152 0
0.000464661614059 -2.94980122311e-06 0
0.000318198113111 0.000146812147901 0
-0.000303981145713 0.000152118058777 0
-0.000172503101228 -0.00186885124556 0
3.78860727227e-05 -0.000137870630514 0
-0.000100093846486 -0.000364557480161 0
-0.000609984303191 -0.000684720058949 0
-0.00073751555127 -0.00724191871185 0
0.000948287075183 -0.000684290249841 0
2.44020372657e-06 -0.00102356164207 0
0.000317602037392 -5.44523789922e-05 0
0.00124781191654 -0.00262325098502 0
-0.000604542506779 -0.00013621944825 0
-0.000260849439527 -1.82880824086e-05 0
0.000264995748067 -2.07218233026e-05 0
-0.000611938817372 -0.000429570503856 0
-0.00054417581 -0.000427525974573 0
1.75656269249e-05 0.000167174246039 0
4.26289300921e-07 0.000162445882532 0
-6.63747137907e-05 0.000217369602903 0
8.34341279156e-05 0.000211819424328 0
-0.0003654949171 -0.00108073788257 0
-0.000203569264778 -0.000388250833039 0
-0.000800258491346 -0.000409168707165 0
-0.00111028782085 -0.00199796137196 0
-0.000384041046735 -0.00603534772081 0
0.000357890469391 -0.0011170655167 0
0.000584100232861 -0.000227005187781 0
-0.000290500636885 3.38891892224e-05 0
-0.000390163954927 -0.000503916918083 0
0.000305425976325 3.52706900148e-05 0
0.000689733009236 -0.000631559376479 0
0.00113993216231 -0.00529243324475 0
-0.000818697402079 -0.00153012349932 0
0.000100587462344 -0.00799393174822 0
-0.000991114962676 -0.00294941138474 0
-0.000148315398639 -0.000121173499318 0
-4.72987661288e-05 0.000117308359723 0
6.4472338585e-05 0.000113433151708 0
0.00111887378492 -0.00432362021698 0
0.00102572722975 -0.00631910799836 0
0.000901890119444 -0.00221115500824 0
-0.000122724209115 0.000149695977115 0
0.000139171331557 0.00014517217909 0
-0.000472678996432 8.0695223785e-06 0
0.000481776669087 5.49337764229e-06 0
-0.000310020500378 -0.0146062653499 0
0.000801252073386 -0.00900545097774 0
0.000496194020991 -0.000724491188837 0
2.06601365075e-05 0.000229007724099 0
-2.58728477261e-06 0.000223367299836 0
0.00123343317921 -0.00414146037996 0
-0.000765749580141 -0.00482524263159 0
-0.000256798665899 -0.000253657176047 0
-0.000233456265542 -4.78058614858e-05 0
0.00114793387538 -0.0014122612351 0
-3.20506064024e-05 4.76305261177e-05 0
4.67744766675e-05 -0.000800643172811 0
5.59098913776e-05 4.20435297411e-05 0
0.000674228200568 -0.00107217667425 0
0.0010039198425 -0.00668597590357 0
-0.000317861191067 -0.00148156359603 0
-0.00117017565638 -0.0049549286126 0
0.000532642473611 -0.000847141228905 0
-0.00053639701475 -0.000818779141005 0
-0.000118617430978 -2.42209269177e-05 0
0.000601591919546 -0.000114725161857 0
-9.32762028385e-05 -1.62770058893e-05 0
-0.000543823537394 -0.00199226336087 0
-0.000646538573784 -0.00862407285478 0
-0.000916807044873 -0.00148676545755 0
0.000200006857019 -0.000138630815915 0
1.75314038072e-05 -0.00337257808271 0
0.000191305378997 -0.0117637869879 0
-0.000850088916653 -0.00599985791156 0
0.000117543756718 -0.000504777394338 0
0.000728468960049 -0.00792726693606 0
-0.00105495023001 -0.00673303406313 0
-0.000193696337046 0.000190865706853 0
0.000209391565368 0.000185416330147 0
-0.000263878611301 -0.00299022285035 0
0.0011169339661 -0.00279158373824 0
0.000285262859653 -4.4604502905e-05 0
-0.000350058469597 -0.00039803834904 0
0.000276222287892 -0.000250236906307 0
-0.000461506446863 -7.49672708343e-05 0
-6.4845763512e-05 -0.000126071460067 0
-0.00121655778382 -0.00213793282999 0
-0.000451800140142 -0.00122621649491 0
-0.00030460430994 -0.000170073956407 0
-0.000266599034579 -4.16743168519e-05 0
0.000862577765695 -0.00151891543129 0
0.00102070761467 -0.00207267679519 0
0.000478989633234 -0.0135340844988 0
0.000350052179011 -0.00163258702055 0
-0.000206467701276 0.000115002931096 0
0.000222178943303 0.000110984987002 0
0.000425882620121 2.57257831043e-05 0
-0.000417601310469 2.98827120813e-05 0
0.000484530315317 -7.99279652544e-05 0
-4.63391300612e-05 -0.00513810411748 0
-0.00134622922339 -0.00616156897664 0
7.26710453214e-05 4.80722031516e-05 0
-5.5886865383e-05 4.39607428399e-05 0
-0.000749630727819 -0.000341060195715 0
0.000434471230199 -0.000567487030684 0
-0.00104605025227 -0.00874736488548 0
-1.75327135525e-05 -4.77533531317e-05 0
0.000269640943022 -0.00211807224692 0
-0.000442677840466 -0.0111100832907 0
-0.000974925791805 -0.00207741776403 0
5.0911105868e-05 0.000101041429126 0
-3.27044738691e-05 9.73961933451e-05 0
-0.000144693006602 -0.00120546801228 0
0.000484916149849 -0.00024427671597 0
0.0010972305421 -0.00358016120211 0
0.00100103977227 -0.00185802668899 0
0.000711449626907 -0.000298727989333 0
0.000225244172184 -0.00062581280932 0
-0.00115435918703 -0.00280741850572 0
-0.000888554940807 -0.000702130978915 0
0.000151499717909 -0.000169054452887 0
0.000420874427704 -0.00281637099507 0
-5.05290711856e-05 -0.0128241369584 0
3.3989936318e-05 -3.36403995757e-05 0
-0.000688765407095 -0.00962695701041 0
6.19402335061e-05 -0.000240530618907 0
0.000304928899148 -0.000176810501589 0
0.000193364515535 -0.00335322835897 0
0.000530998470951 -5.62812561582e-05 0
-0.000351777400656 -0.00040017828109 0
-0.00058817280724 -0.00386487346517 0
0.000889069243478 -0.00340600141912 0
-0.00110276722637 -0.00126993614887 0
9.63639311313e-05 -0.00152679356643 0
-0.000482526512679 -0.000636579834153 0
0.000144545724883 -1.46964846355e-05 0
-0.000517663045721 -5.2959387071e-05 0
0.000574699548228 -0.00320019872039 0
-0.000732242302591 -0.00125935970937 0
-0.000575745499849 -0.0020920525424 0
0.000367180142853 0.000131044703005 0
-0.000353942395309 0.000136586338581 0
0.000446609352861 -0.00607775025984 0
0.000581495847037 -0.0020986418464 0
0.000374128298739 -0.00102201658268 0
0.000947319086915 -0.000930744757434 0
-0.000533442705072 -0.000112684829508 0
0.000148702774878 -6.71053649167e-05 0
-0.000403778339286 -0.000202233868602 0
0.000369384673917 -0.0116426724928 0
0.00028976492418 -0.00462988029372 0
6.77538216423e-05 -0.00600307381819 0
0.000344021402424 -0.000370132282073 0
-2.57476802392e-05 -0.00098273133994 0
4.54143110414e-06 0.000100609750637 0
0.000185463149059 -0.000394036123089 0
1.31941344742e-05 9.70195903974e-05 0
0.000283705777801 -0.000435785061286 0
0.00119597805587 -0.00274572611504 0
0.000193291746687 -0.0146014731706 0
-0.000211686723353 -0.00446798564488 0
-0.00051001050929 -0.000173423214765 0
-0.00101139495736 -0.00224028369358 0
0.00120564286623 -0.00345273198119 0
0.000520816559546 -0.00101028222883 0
0.000541370216448 -0.000734385511808 0
-0.000687048633433 -0.00276000044633 0
0.000406785647001 -0.00863634827802 0
0.000161410015288 -0.000696246728384 0
-2.56584031523e-05 -1.10286390016e-05 0
-0.000726764677019 -0.000464056424653 0
-0.000678494799803 -0.0119243648181 0
-0.000659340286154 -0.000206131826551 0
0.000414559783327 -0.000207123711155 0
4.00951966478e-05 -0.00010574263925 0
2.03905216499e-05 5.59329485491e-05 0
-1.63302927661e-06 4.60733109972e-05 0
0.000758975232412 -0.00503794309703 0
4.11658229696e-05 0.000193580562841 0
-2.28515389277e-05 0.000188446908545 0
-0.00133503215804 -0.00480417513142 0
0.000107420178593 -9.79073974673e-06 0
-0.000401136904759 6.53830740471e-05 0
0.000414027126567 6.18439838286e-05 0
0.000931150528789 -0.000696892202148 0
-0.000581713163793 -0.00207945908084 0
-5.03071701276e-05 -0.000473035007698 0
0.0001640242286 -0.000237239474406 0
0.000500756320548 -0.00693851178645 0
-0.00032611503343 -0.000592047075952 0
0.000368473875174 -0.00356783004908 0
-0.000904201645201 -0.00680802748012 0
-0.00117199654166 -0.00354709858804 0
-0.000350621227026 -0.00245464677093 0
-0.000334529193892 -0.0100964826431 0
-2.21078672231e-05 0.00023722774408 0
3.96657994307e-05 0.000231454158494 0
-0.000920750549043 -0.00111299694158 0
-0.000251862166385 -0.000617756056188 0
-8.92172740609e-05 8.15071597797e-05 0
0.00149682094925 -0.00521808012359 0
0.000106411346646 7.83238487109e-05 0
-0.000153938954107 -0.000230812797969 0
0.00051924538995 -0.0108316104044 0
-0.000900191123931 -0.000609735667619 0
-0.00124582894579 -0.00327413212897 0
0.000798688302382 -0.00044711557171 0
-0.000195772207658 -0.00423500645203 0
-1.96348869233e-05 0.00017154902531 0
3.71983833816e-05 0.000166740521869 0
0.000730358973337 -0.000433281441324 0