# vtk DataFile Version 2.0
Generated with Solid Solver
ASCII
DATASET UNSTRUCTURED_GRID
POINTS 856 float 
0.0 3.5 0.0
1.6 3.5 0.0
1.6 4.0 0.0
0.0 4.0 0.0
0.0695652173912 3.5 0.0
0.139130434782 3.5 0.0
0.208695652174 3.5 0.0
0.278260869565 3.5 0.0
0.347826086956 3.5 0.0
0.417391304347 3.5 0.0
0.486956521738 3.5 0.0
0.556521739129 3.5 0.0
0.62608695652 3.5 0.0
0.695652173911 3.5 0.0
0.765217391302 3.5 0.0
0.834782608694 3.5 0.0
0.904347826085 3.5 0.0
0.973913043477 3.5 0.0
1.04347826087 3.5 0.0
1.11304347826 3.5 0.0
1.18260869565 3.5 0.0
1.25217391304 3.5 0.0
1.32173913043 3.5 0.0
1.39130434783 3.5 0.0
1.46086956522 3.5 0.0
1.53043478261 3.5 0.0
1.6 3.56430812594 0.0
1.6 3.62270835268 0.0
1.6 3.6757434324 0.0
1.6 3.7239062376 0.0
1.6 3.76764438351 0.0
1.6 3.80736436404 0.0
1.6 3.84343531219 0.0
1.6 3.87619247117 0.0
1.6 3.90594026707 0.0
1.6 3.93295517284 0.0
1.6 3.95748825478 0.0
1.6 3.97976750982 0.0
1.58000000587 4.0 0.0
1.55999996633 4.0 0.0
1.54000002214 4.0 0.0
1.51999997198 4.0 0.0
1.50000000455 4.0 0.0
1.48000000216 4.0 0.0
1.45999997931 4.0 0.0
1.44000002484 4.0 0.0
1.41999997044 4.0 0.0
1.40000002096 4.0 0.0
1.37999999963 4.0 0.0
1.35999999626 4.0 0.0
1.34000002179 4.0 0.0
1.31999997343 4.0 0.0
1.3000000318 4.0 0.0
1.27999998783 4.0 0.0
1.26000000202 4.0 0.0
1.24000001295 4.0 0.0
1.21999998074 4.0 0.0
1.20000003685 4.0 0.0
1.17999998163 4.0 0.0
1.16000001473 4.0 0.0
1.14000000469 4.0 0.0
1.11999999139 4.0 0.0
1.10000003625 4.0 0.0
1.07999997877 4.0 0.0
1.06000002802 4.0 0.0
1.04000000338 4.0 0.0
1.02000000764 4.0 0.0
1.00000002986 4.0 0.0
0.979999980237 4.0 0.0
0.960000035522 4.0 0.0
0.939999990881 4.0 0.0
0.920000014619 4.0 0.0
0.900000017903 4.0 0.0
0.879999986222 4.0 0.0
0.860000037278 4.0 0.0
0.839999982352 4.0 0.0
0.820000022783 4.0 0.0
0.800000000002 4.0 0.0
0.779999977222 4.0 0.0
0.760000017652 4.0 0.0
0.739999962726 4.0 0.0
0.720000013782 4.0 0.0
0.699999982101 4.0 0.0
0.679999985385 4.0 0.0
0.660000009123 4.0 0.0
0.639999964482 4.0 0.0
0.620000019766 4.0 0.0
0.599999970141 4.0 0.0
0.57999999236 4.0 0.0
0.559999996622 4.0 0.0
0.539999971983 4.0 0.0
0.520000021235 4.0 0.0
0.499999963756 4.0 0.0
0.480000008612 4.0 0.0
0.459999995315 4.0 0.0
0.439999985272 4.0 0.0
0.420000018371 4.0 0.0
0.39999996315 4.0 0.0
0.380000019261 4.0 0.0
0.359999987052 4.0 0.0
0.339999997986 4.0 0.0
0.320000012172 4.0 0.0
0.299999968206 4.0 0.0
0.280000026575 4.0 0.0
0.259999978213 4.0 0.0
0.240000003742 4.0 0.0
0.220000000371 4.0 0.0
0.199999979041 4.0 0.0
0.180000029557 4.0 0.0
0.159999975162 4.0 0.0
0.140000020694 4.0 0.0
0.119999997846 4.0 0.0
0.0999999954514 4.0 0.0
0.0800000280232 4.0 0.0
0.0599999778571 4.0 0.0
0.0400000336732 4.0 0.0
0.0199999941324 4.0 0.0
0.0 3.97976750982 0.0
0.0 3.95748825478 0.0
0.0 3.93295517284 0.0
0.0 3.90594026707 0.0
0.0 3.87619247117 0.0
0.0 3.84343531219 0.0
0.0 3.80736436404 0.0
0.0 3.76764438351 0.0
0.0 3.7239062376 0.0
0.0 3.6757434324 0.0
0.0 3.62270835268 0.0
0.0 3.56430812594 0.0
0.249757905714 3.75212552678 0.0
1.35000000902 3.74954526597 0.0
0.488714190926 3.75947467509 0.0
0.727445026698 3.75983525744 0.0
0.962900270309 3.76055270856 0.0
1.17161197633 3.81755162829 0.0
0.130754031542 3.86878251069 0.0
1.46924596846 3.86878251069 0.0
0.369913852535 3.84868154079 0.0
0.603236233099 3.84763103091 0.0
0.843402107212 3.84736931152 0.0
1.05041705507 3.86611282467 0.0
0.250539323282 3.87785527135 0.0
1.34882231626 3.87787871523 0.0
0.468661896861 3.89189320321 0.0
0.704258117309 3.89639128976 0.0
0.94963922804 3.89654080835 0.0
1.25000000748 3.89875296068 0.0
1.12879020517 3.91059303421 0.0
0.548928478218 3.91905583534 0.0
0.7889268651 3.91906062813 0.0
0.0712526194949 3.93011432704 0.0
1.52874738051 3.93011432704 0.0
1.4740071133 3.74293106904 0.0
0.125992886699 3.74293106904 0.0
0.329956761073 3.92118145982 0.0
1.09412206522 3.66725831207 0.0
0.190000004299 3.92542384899 0.0
1.41098423528 3.92728100222 0.0
0.629999992124 3.92414139091 0.0
0.87000001175 3.92414140592 0.0
0.853391941071 3.71944243214 0.0
0.610032822379 3.72536074396 0.0
0.41090315692 3.92892991009 0.0
0.370435019193 3.7251305208 0.0
1.01000001875 3.93130199947 0.0
1.22823348571 3.68694249365 0.0
1.18894423177 3.93487447818 0.0
1.31063576122 3.93502724255 0.0
0.129927636183 3.94112156482 0.0
1.47007236382 3.94112156482 0.0
1.07646504896 3.76194504855 0.0
1.07000000339 3.94017719684 0.0
0.270000002394 3.93875928556 0.0
1.26759839792 3.80243333593 0.0
0.770332946246 3.83880063275 0.0
0.530342720064 3.83880306325 0.0
0.189898092614 3.63474333735 0.0
1.4101772205 3.6313147556 0.0
0.942883893479 3.62966700486 0.0
0.510631148905 3.62429064243 0.0
0.754670889573 3.63369080225 0.0
0.489999986184 3.94463854908 0.0
0.732500655853 3.9452729887 0.0
0.193627936713 3.81528931126 0.0
1.40183871842 3.81461096917 0.0
0.928721275957 3.94715071018 0.0
0.0604617896557 3.86281267064 0.0
1.53953821034 3.86281267065 0.0
1.25036152032 3.94913766834 0.0
0.30096552553 3.81141484704 0.0
0.297089357677 3.66359682597 0.0
0.394212311705 3.61316974741 0.0
0.831051681923 3.94633984116 0.0
0.592085081305 3.94901138542 0.0
0.669405291514 3.95495209798 0.0
1.3611855791 3.94637621082 0.0
0.928496698914 3.82436133158 0.0
0.444093171593 3.8271987226 0.0
0.683378885111 3.8234871366 0.0
0.372430737197 3.95235208784 0.0
1.19348789949 3.87019408468 0.0
1.15124363553 3.95467023547 0.0
0.229287653728 3.96038323295 0.0
0.646635519079 3.61231195482 0.0
0.986819459779 3.84973028271 0.0
1.11214815433 3.84770266014 0.0
1.50610225987 3.6604664246 0.0
0.0938977401332 3.6604664246 0.0
0.531976760298 3.96138656711 0.0
0.451361041931 3.96112773652 0.0
0.771976835888 3.96138886125 0.0
1.53311213884 3.79435404356 0.0
0.066887861162 3.79435404356 0.0
0.970836553066 3.9620233382 0.0
0.311702426505 3.96111572975 0.0
1.31698094247 3.6658628839 0.0
1.11177843379 3.95948388532 0.0
1.15003411964 3.72957279566 0.0
0.890058924798 3.96133576813 0.0
0.169108880648 3.96040269401 0.0
1.42850737314 3.96465656678 0.0
0.0426347993992 3.9610175717 0.0
1.5573652006 3.9610175717 0.0
1.28993057938 3.85776473604 0.0
1.34652710411 3.82072629166 0.0
0.897316840472 3.87585124602 0.0
0.814484972147 3.79171515708 0.0
0.573290986674 3.7879873938 0.0
1.02164717476 3.69631051635 0.0
0.41798215839 3.87594988344 0.0
1.18469655214 3.6045863568 0.0
0.657426542805 3.87734841349 0.0
0.0893439701605 3.9657484063 0.0
1.51065602984 3.9657484063 0.0
0.850202761783 3.61862953305 0.0
0.185775988195 3.86980628439 0.0
1.41422401181 3.86980628439 0.0
0.305957202498 3.87340573583 0.0
0.629999992124 3.96272981278 0.0
0.686026569054 3.68766751472 0.0
1.03220081924 3.96436031967 0.0
0.445441337222 3.69456289967 0.0
1.33308537187 3.96770341358 0.0
1.0249206042 3.60512275769 0.0
0.128645746764 3.81165411571 0.0
1.47135425324 3.81165411571 0.0
1.29077706219 3.96625078806 0.0
1.21302440104 3.96491551313 0.0
0.373320303365 3.89968789902 0.0
0.409457647309 3.96502881891 0.0
1.39076199588 3.96614348387 0.0
1.2156032112 3.76624353786 0.0
0.383301616321 3.78976397621 0.0
0.593246012246 3.8948346816 0.0
0.833004203108 3.89475034107 0.0
0.187583903859 3.70688411961 0.0
1.41241609614 3.70688411961 0.0
1.08573330585 3.89673930733 0.0
1.04303343403 3.81530385578 0.0
0.103644791029 3.90516202075 0.0
1.49635520897 3.90516202075 0.0
1.23586605501 3.85112068621 0.0
0.921814270996 3.70213058021 0.0
0.532219762185 3.7029333087 0.0
1.28217045716 3.7375098981 0.0
0.779621693208 3.70806977531 0.0
0.998890529268 3.88397615296 0.0
0.659406618131 3.76469373474 0.0
0.230043799244 3.91599372373 0.0
1.53690667654 3.72637971331 0.0
0.0630933234627 3.72637971331 0.0
0.153148105836 3.90639761309 0.0
1.4478092366 3.90500627713 0.0
0.512139854501 3.90538519137 0.0
0.750930702019 3.90340708 0.0
0.0409150717909 3.90046251393 0.0
1.55908492821 3.90046251393 0.0
0.702096631597 3.96656725638 0.0
0.246204062466 3.82734823738 0.0
0.872012730916 3.80079945556 0.0
0.313419524246 3.75328100976 0.0
1.26305184675 3.57725747237 0.0
1.04341944162 3.90846795586 0.0
0.697725469476 3.93030230037 0.0
0.27003033309 3.96477332623 0.0
0.632456188669 3.80120134001 0.0
0.55988813035 3.96676596088 0.0
0.798125231733 3.9668778541 0.0
0.861599835739 3.96514225679 0.0
0.130196681328 3.96566148827 0.0
1.46980331867 3.96566148827 0.0
0.337465698618 3.96873835045 0.0
1.10690030388 3.57445060302 0.0
1.07038768144 3.96631210642 0.0
0.201908835349 3.96783542832 0.0
1.17640357301 3.96795841043 0.0
0.482502283815 3.8454083814 0.0
1.37723451734 3.90442225885 0.0
0.722497886517 3.84543272537 0.0
0.254749007352 3.57960328731 0.0
0.449206209982 3.91785378051 0.0
0.907803563184 3.91575967116 0.0
0.997592319531 3.96832081731 0.0
1.3597087328 3.59165409162 0.0
0.797785363131 3.87112617582 0.0
0.557788209884 3.87112741711 0.0
0.133223775006 3.57024633267 0.0
1.46673023696 3.57019175074 0.0
0.296361477075 3.90524448543 0.0
1.29555045611 3.90092076583 0.0
1.11951450862 3.79592056714 0.0
0.341558640376 3.57546927501 0.0
0.974255514016 3.92370320024 0.0
0.664786082443 3.91707165091 0.0
1.1442561544 3.86460464827 0.0
0.430695849932 3.74774845865 0.0
1.22439218721 3.92431164104 0.0
0.917330800791 3.76752811157 0.0
0.0995806821614 3.83759752714 0.0
1.50041931784 3.83759752714 0.0
0.586492545959 3.6571718064 0.0
1.16809690663 3.90376349956 0.0
0.490525946651 3.9687439861 0.0
0.170108846494 3.77025381333 0.0
0.726723612771 3.96611364881 0.0
1.42998397347 3.77014833166 0.0
1.55978981314 3.82099569701 0.0
0.0402101868575 3.82099569701 0.0
1.10043652243 3.92805072974 0.0
1.34111814411 3.91924529479 0.0
1.27430066613 3.93505265881 0.0
0.56431092584 3.57086686051 0.0
0.930516510487 3.96969091611 0.0
1.17713743504 3.67180033503 0.0
0.801256410508 3.5635758738 0.0
1.37979186382 3.84566323689 0.0
1.02277822921 3.7577258162 0.0
0.252009847995 3.68167957306 0.0
0.0497138210057 3.58866012032 0.0
1.55028617899 3.58866012032 0.0
0.466046622144 3.57331739513 0.0
0.343019074867 3.81481221655 0.0
0.0645235269233 3.96909610548 0.0
1.53547647308 3.96909610548 0.0
0.0310141903995 3.92955737583 0.0
[...]
POINT_DATA 856
VECTORS Displacement float
0.0 0.0 0
0.0 0.0 0
-0.000124667195814 0.00054713870162 0
0.000149051080663 0.000554714725572 0
0.0 0.0 0
0.0 0.0 0
0.0 0.0 0
0.0 0.0 0
0.0 0.0 0
0.0 0.0 0
0.0 0.0 0
0.0 0.0 0
0.0 0.0 0
0.0 0.0 0
0.0 0.0 0
0.0 0.0 0
0.0 0.0 0
0.0 0.0 0
0.0 0.0 0
0.0 0.0 0
0.0 0.0 0
0.0 0.0 0
0.0 0.0 0
0.0 0.0 0
0.0 0.0 0
0.0 0.0 0
0.000409323132474 -0.000189018022515 0
0.00069156995619 -0.000147540078972 0
0.000848544873748 -2.3338304884e-05 0
0.000867894269457 0.000128237193805 0
0.000806310675759 0.000261520914526 0
0.000692422240081 0.000371522728197 0
0.000549928825675 0.00044973536404 0
0.000408446433054 0.000501590236233 0
0.000271775407661 0.000531572311886 0
0.00014929563898 0.000543379148484 0
4.40835861849e-05 0.00054760542038 0
-4.59763937815e-05 0.000547657409077 0
-0.000124153259456 0.000469583217308 0
-0.000123614562042 0.000395123137589 0
-0.00012558447464 0.000324903749591 0
-0.000131668341075 0.00025894782138 0
-0.000143621498047 0.000196427185889 0
-0.000162872725504 0.000134060072809 0
-0.000190529974758 7.36111259715e-05 0
-0.000227124390827 8.15135381539e-06 0
-0.000274318769629 -6.02189364261e-05 0
-0.000329848035293 -0.000138126060014 0
-0.000397516637573 -0.000222324887256 0
-0.000475475045644 -0.000321868759046 0
-0.000567586656844 -0.000434952475995 0
-0.000670578323609 -0.000567046570544 0
-0.000782206875687 -0.000719925793531 0
-0.000911507538831 -0.000895210716636 0
-0.00104877684496 -0.00109674204541 0
-0.00119544685094 -0.00133260489845 0
-0.001358571997 -0.00160507855624 0
-0.00154121690476 -0.0019141849667 0
-0.001729057965 -0.00227568327088 0
-0.00193957712262 -0.00269017438692 0
-0.00214961952084 -0.00316697687108 0
-0.0023687445811 -0.00371978799719 0
-0.00261100441915 -0.00434276290253 0
-0.00285308336939 -0.00506544516168 0
-0.00312523577544 -0.00590371753119 0
-0.003383691598 -0.00687677985406 0
-0.00367389321647 -0.00804110500329 0
-0.00392183110293 -0.00942362580953 0
-0.00416921634013 -0.0110996333056 0
-0.00434798832712 -0.0133272124282 0
-0.00411906751816 -0.0166771938575 0
-0.00366946998852 -0.0197259479001 0
-0.00311458843879 -0.0222812207317 0
-0.00246896935823 -0.0243610004736 0
-0.00185942207369 -0.0259766132242 0
-0.00120229506544 -0.0271256413824 0
-0.000556786348048 -0.0278105621536 0
7.03843368102e-05 -0.0280344473868 0
0.00066094847203 -0.0278162088092 0
0.00130237588673 -0.0271298922285 0
0.00190308447097 -0.0259807392506 0
0.00256567704354 -0.0243742566308 0
0.00317190506706 -0.02229143238 0
0.0037375407284 -0.019740130402 0
0.0042073940806 -0.0166855658322 0
0.00439287264885 -0.0133062789714 0
0.00424159941608 -0.0111319903988 0
0.00395604760953 -0.00940991620476 0
0.00368112663215 -0.00802165595163 0
0.00340901267997 -0.00687514829715 0
0.00315086656455 -0.00590494907888 0
0.00288634244805 -0.00505957030675 0
0.00264306024313 -0.00433012511022 0
0.00239188342787 -0.00370106556911 0
0.00216708261724 -0.00315662702916 0
0.00194961878581 -0.00268753088639 0
0.00175468038989 -0.00227289688072 0
0.00156314072219 -0.00191341524154 0
0.00138075326904 -0.00160254711564 0
0.0012192822285 -0.0013304713867 0
0.00106769329939 -0.00109793468197 0
0.000930338690446 -0.000893527238162 0
0.000802763565996 -0.000718998236032 0
0.000691598899591 -0.000565912454418 0
0.000589060120764 -0.000436049278879 0
0.000500792720945 -0.000320895366136 0
0.000422057423324 -0.0002221446524 0
0.000353387871663 -0.000136635495498 0
0.000298199705431 -5.86194081248e-05 0
0.000251331363111 9.95046810403e-06 0
0.00021488665048 7.64835354376e-05 0
0.000187099047113 0.000137722456365 0
0.000167921984787 0.000200631466498 0
0.000156015894814 0.000263820100709 0
0.000149956744695 0.000330457800119 0
0.000147994469677 0.000401358519971 0
0.000148535297392 0.0004764914597 0
6.96851221598e-05 0.000555235302682 0
-2.11125595035e-05 0.000555185694005 0
-0.0001271233751 0.000550968795695 0
-0.000250467314926 0.000539191507296 0
-0.000388103138279 0.000509296009238 0
-0.000530751793092 0.000457584275077 0
-0.000674636197616 0.000379550044489 0
-0.000790436810946 0.00026974966578 0
-0.000854552390472 0.000136397034334 0
-0.000838254513188 -1.58842745001e-05 0
-0.000684266500772 -0.000141543762697 0
-0.000404812616012 -0.000185009579709 0
-0.00119726100211 -0.000323601084765 0
0.00122194201503 -0.000322064379143 0
-0.00219436892508 -0.00312760920622 0
-0.00129233228899 -0.00977835811041 0
0.00230000168841 -0.00738753087505 0
0.00150357178452 -0.00218214771332 0
-0.000457124573933 0.000115204001228 0
0.000476795004503 0.00011171746169 0
-0.000897633799691 -0.00129571591336 0
-0.00211673008005 -0.0081830725476 0
0.000952318482218 -0.0153741967186 0
0.00153654628653 -0.0058726275396 0
-0.000423091332028 -0.00029589471409 0
0.000444066763297 -0.000301032804911 0
-0.000532082602059 -0.00317585727841 0
-0.00151408968403 -0.016152755293 0
0.00166895587831 -0.0123018399894 0
0.000247322039949 -0.00107663498857 0
0.000146767983259 -0.00327323715276 0
-0.000198968374575 -0.00607836314477 0
-0.000139388994124 -0.0212915812777 0
-0.000140126307169 0.000292594403533 0
0.000162159505621 0.000287394100675 0
0.000968362574544 3.19038011443e-05 0
-0.000953268364863 3.49458160222e-05 0
5.75981674267e-05 -0.000878152797082 0
0.00212492624725 -0.00244120314164 0
-8.88120034837e-05 -4.97435176794e-05 0
0.000100599194508 -4.78418244246e-05 0
-0.000784269242903 -0.0113204351346 0
0.000912974825445 -0.0196098285684 0
0.000907242865591 -0.00815919823481 0
-0.00228997309349 -0.00557937964449 0
0.000290580124423 -0.00195843659066 0
-0.00172820602177 -0.00115378621307 0
0.000120798023349 -0.00841338666687 0
0.00174151437539 -0.00104883494626 0
-0.00038189911648 -0.00197384362612 0
-0.000119277763666 -0.000551953927662 0
-5.48735539034e-05 0.000126441191825 0
7.71104945562e-05 0.00012361827296 0
0.00234497452273 -0.00399530947295 0
-0.000587806668919 -0.00528172735863 0
0.000138300185936 -0.000424053877528 0
0.00123109694732 -0.000877173964257 0
-0.00061320518199 -0.0150389412207 0
-0.001801953289 -0.00492823577302 0
-0.000962708990805 -0.000130870239658 0
0.000963395958554 -0.000134060239303 0
0.00142920890138 -0.00367466652978 0
-0.0018064735207 -0.00188570915788 0
-0.000536337787669 -0.00459469766552 0
0.000772597146603 -0.00384387507347 0
-0.000379923027188 -0.0213056128327 0
-0.000795880094252 -8.04937181381e-05 0
0.000827867955269 -9.85460861003e-05 0
0.000346423509784 -0.0159442832373 0
-0.000470469334197 0.000286270627902 0
0.000490429488905 0.000280696199732 0
-0.000451743574795 -0.00111055754624 0
-0.00104491113792 -0.000620428131978 0
-0.00138907684952 -0.000497230290223 0
-0.0014721634894 -0.000865434453595 0
0.000235276058439 -0.0231711641494 0
0.000683783966517 -0.00861835647445 0
8.67238938838e-05 -0.0160374681408 0
-0.000114051785057 -0.000261102856774 0
0.00217906051302 -0.0109133100762 0
-0.00145961693123 -0.00249212717538 0
-0.00201849251354 -0.0114190683298 0
0.000603202017057 -0.00139349504331 0
0.000740664453154 -0.00185253722611 0
-0.000916833318764 -0.00276607390302 0
0.000216044436335 -0.000223963429564 0
-0.00137898111305 -0.00303646442146 0
0.00216347611798 -0.00876020759648 0
0.0014376908899 -0.0036206268429 0
0.000892601461784 4.03796550982e-06 0
-0.000883977650002 7.77139592928e-06 0
0.00142681217308 -0.0053939326466 0
0.00111564850536 -0.00282634695506 0
5.50052566594e-05 -0.024543346332 0
0.000784101841529 0.000188518552889 0
-0.000766693042731 0.00019386896227 0
-0.000964326391065 -0.011723283119 0
0.000486561892487 -0.000749307189766 0
0.00135277175542 -0.000439292514686 0
-0.00120181782745 -0.00382614926378 0
0.00210583231248 -0.00219114574968 0
-9.90489901684e-05 -0.0207384582322 0
9.16890153776e-05 5.19326776354e-06 0
-9.47658028468e-05 -6.29469140842e-06 0
-4.94110648956e-06 0.000391471431973 0
2.80216808025e-05 0.000385313859956 0
0.000687565193257 -0.000684012787328 0
0.000886510950464 -0.000320113519735 0
0.00172446004371 -0.0149238237958 0
0.000309909957593 -0.012300874503 0
-0.0024019786026 -0.00585411795623 0
0.00228902393901 -0.00420316055899 0
-0.000663229088976 -0.00204572691754 0
0.00144612722267 -0.000923366677456 0
-0.00192619573409 -0.012153705875 0
3.10936853717e-05 0.00023970432213 0
-7.84109577441e-06 0.00023515694711 0
0.000558254802826 -0.00396107337381 0
-0.000464248514544 -3.4841446236e-05 0
0.000483189065112 -3.50565382029e-05 0
-0.000500199486214 -0.000650649514584 0
0.0010509309173 -0.0118420106791 0
-0.00155848581096 -0.00599850998385 0
-0.00155922652662 -0.00714988665099 0
-0.00206010166464 -0.00188507318557 0
-0.00036148788724 -0.000432302311708 0
0.00159282279358 -0.00218572114023 0
-0.000744224365067 8.76738582041e-05 0
0.000763231051993 8.38845254463e-05 0
-0.000507030310188 -0.000737490954892 0
-0.000850731603979 -0.00162044766049 0
-0.000216951828998 -0.0013610725139 0
0.000990496874647 -0.00198229367221 0
-0.000181143852919 -0.000143335146274 0
0.00168365496207 -0.00140141735157 0
-0.00150790923844 -0.00142794727471 0
-0.00125440036789 -0.0083259443504 0
0.000650459270206 -0.0189857754938 0
-0.00109803608573 -0.000116778889816 0
0.00110919814348 -0.000115807654326 0
0.000656788086505 -0.00461055426467 0
0.00220955217957 -0.00568991107805 0
-0.000259374472543 0.000196605751858 0
0.000280520464876 0.000192447001381 0
0.000873957750376 -0.00123069070634 0
0.00171001801563 -0.00641968348672 0
-0.0022996615783 -0.00338643673383 0
0.00149477280378 -0.000720722737767 0
-0.000343651340633 -0.0078784285978 0
0.00161157443876 -0.00866778418085 0
-0.00214405819799 -0.00820839497093 0
-0.0001173857547 -0.000203989606052 0
0.00092211933295 9.58826067259e-05 0
-0.00090869676516 0.000101165201788 0
-0.000235103304081 6.43849917035e-05 0
0.000266317698903 6.39524291343e-05 0
-0.000398941609059 -0.0045380780502 0
-0.000841803394731 -0.0191067976854 0
-0.000283779610571 0.00037471561099 0
0.000304914284316 0.000368486935681 0
0.000490336880922 -0.0203078193525 0
-0.000807233088926 -0.000285387946214 0
0.00140378929683 -0.0118726140404 0
-0.00141128996859 -0.000704378633274 0
0.000990527719104 -0.000413445631577 0
0.000618857305795 -0.00642441213953 0
-0.000936882422319 -0.0176463947703 0
0.000369239033894 -0.000448870272522 0
-0.00235304995093 -0.00843663315392 0
0.00170394570913 -0.00672280638806 0
5.83845706354e-05 -0.0254011924535 0
-0.000166427452582 -0.0232518285305 0
6.45721758436e-05 0.000119976643638 0
-4.12385262918e-05 0.000116686067062 0
0.000685182782562 -0.00100568607688 0
0.0012422250907 -0.00106758209414 0
-0.00159056657765 -0.00531956145134 0
0.000196819744787 -0.000115314821141 0
-0.00110422953648 -0.00225193321028 0
-0.00142655894573 -0.00345229999671 0
0.000235355123296 -0.000171176683338 0
-0.00151888629619 -0.0141425669527 0
-0.000798244193844 -0.00021637239658 0
7.47215888137e-05 -0.00272092119891 0
0.00132936455532 -0.0163782764955 0
-0.00166579862029 -0.0094270833105 0
0.000860774060026 -0.000212538812404 0
-2.65850846685e-05 -0.0175607336636 0
-0.00148004524877 -0.00625991810647 0
-0.000524113182501 -4.35274385813e-05 0
0.000529573113876 -4.48968378674e-05 0
-0.000160164047882 -0.000586290805079 0
0.000225185224439 -0.000644126008576 0
0.00197711652474 -0.00320053906702 0
-0.000978870483643 -0.000420997229454 0
0.000786945388681 -0.0109757981646 0
-0.0012669995361 -0.0141190133577 0
0.00100835554013 -0.00283049491563 0
-0.00195358024385 -0.00198728821823 0
-0.00014142951024 -0.0014077416503 0
0.00193887473649 -0.00904101030934 0
-0.000606260185971 0.000169326951813 0
0.000625122026061 0.000165107953542 0
-0.00198195712949 -0.00346395851116 0
0.000222663212453 -0.00234041412911 0
0.00152925630341 -0.00390627093817 0
-0.00095418243934 -3.83440820366e-05 0
0.000325226496144 -0.0225066060879 0
0.000971117825874 -4.1193643539e-05 0
0.000665613637486 0.000283537699866 0
-0.000647253153811 0.000289871883201 0
-0.000255275926387 -0.00412742213471 0
8.08522037695e-05 -0.000350574282624 0
-0.000200119755426 -0.000847454224879 0
-0.0011957736267 -0.00139600973508 0
-0.000896705599157 -0.0166930970911 0
0.00192262323426 -0.00146876603705 0
3.61445378253e-06 -0.0020034526286 0
0.000666115746101 -0.000163886336428 0
0.0024585613461 -0.00544967353878 0
-0.00125964574483 -0.000321086034305 0
-0.000549996352236 -4.88102300187e-05 0
0.000555289892629 -5.18585588222e-05 0
-0.00122522298689 -0.000897894376851 0
-0.00115419219419 -0.000978741923077 0
3.38710542541e-05 0.000317319927201 0
-1.05216226462e-05 0.000311910819826 0
-0.000145034738196 0.000425295786516 0
0.000167091758473 0.000418735053306 0
-0.000697547600209 -0.0021335953722 0
-0.000453991148028 -0.000901203800564 0
-0.00164367175376 -0.000896983283776 0
-0.00226301036025 -0.00426600994047 0
-0.000680886507568 -0.0116958467146 0
0.000680087732557 -0.00220346411594 0
0.00121771817879 -0.000534080970246 0
-0.000619711514718 2.95916775484e-05 0
-0.0008123015315 -0.00114954645602 0
0.000638869682713 3.61722377891e-05 0
0.00143961109467 -0.00141095121149 0
0.00216844599304 -0.0109794573638 0
-0.00166222546257 -0.00338690648967 0
0.000162552790549 -0.0152678954414 0
-0.00205451111808 -0.00632698316741 0
-0.000318525059086 -0.000311967693697 0
-0.000105215545901 0.00020980752615 0
0.000127384112085 0.000205610974867 0
0.00192179163024 -0.00974149354899 0
0.00136120516463 -0.0147719362727 0
0.00188198823446 -0.00477982480917 0
-0.000265044348474 0.000280641952064 0
0.000286253775038 0.000275504919921 0
-0.000994874920166 -8.94385232189e-06 0
0.00100635302293 -1.18619892504e-05 0
-0.000421242940521 -0.0262205703218 0
0.00123419720858 -0.0175024423259 0
0.00100765826284 -0.00163356839681 0
4.0737704985e-05 0.000449806513735 0
-1.72758432245e-05 0.00044312421817 0
0.00235899494416 -0.00849479153079 0
-0.00164105139887 -0.010397534134 0
-0.000543018169417 -0.000602556114596 0
-0.000502801023055 -0.000153287706683 0
0.00230090553284 -0.00298596615688 0
-7.45703996985e-05 5.69363029042e-05 0
0.000132700324895 -0.00179736871508 0
0.000111088902192 4.80537588927e-05 0
0.00136537897454 -0.0023909365376 0
0.00174635597771 -0.0132325076942 0
-0.000591665354144 -0.0032807125389 0
-0.00223093712285 -0.0102113394886 0
0.00102680513809 -0.0016977696243 0
-0.00115156108002 -0.00182871791995 0
-0.00026080213679 -0.000102263128497 0
0.00124947406578 -0.000275747982392 0
-0.000206832125025 -8.00838772799e-05 0
-0.00121163437686 -0.00436511209992 0
-0.00102336409279 -0.0165963822757 0
-0.00190882621035 -0.00323040528596 0
0.00041296107965 -0.000352804161709 0
-0.000203257883223 -0.00745884143846 0
0.000242032478243 -0.0217019375498 0
-0.00151907041408 -0.0117796866472 0
0.000213146732077 -0.00115698468572 0
0.000953867093324 -0.018028557409 0
-0.00188321612665 -0.0135934869199 0
-0.000415026843451 0.000370077012325 0
0.000435293683886 0.000363623487464 0
-0.000344482093277 -0.00661043788092 0
0.00214207638716 -0.00564504276434 0
0.000591957110198 -0.000101943909608 0
-0.000757071040458 -0.000920360617185 0
0.000568979033711 -0.000597809496109 0
-0.000975656742221 -0.000206352627363 0
-0.000151968101284 -0.000327673632745 0
-0.00242183939961 -0.00447305640743 0
-0.000997550877906 -0.0027149118295 0
-0.000655033848411 -0.000422373735372 0
-0.000555664007903 -9.61580348837e-05 0
0.00173796411819 -0.00336693141 0
0.00203400510883 -0.00458511823954 0
0.000698498191199 -0.025051188554 0
0.000798523303023 -0.00359588501553 0
-0.000442249331331 0.000206772493765 0
0.000462587010843 0.000202311489601 0
0.000891883272221 3.70067175413e-05 0
-0.000881554932214 4.21790119844e-05 0
0.00101263433989 -0.00021426066743 0
-8.43475738395e-05 -0.0099719300099 0
-0.00196891034326 -0.0145023805319 0
0.000149947479715 5.84780507354e-05 0
-0.000129297771495 5.30056982825e-05 0
-0.00155548824512 -0.000766606470105 0
0.000886118423538 -0.00129145806769 0
-0.00150889174916 -0.0197278198069 0
-4.16542823327e-05 -0.000151054417222 0
0.000418467138463 -0.00468138550571 0
-0.000557940779699 -0.0210634267038 0
-0.00195565546568 -0.00458978568844 0
0.000104650867351 0.000174336432452 0
-8.1005878111e-05 0.000170494891152 0
-0.000245203327001 -0.00267834413714 0
0.00101707610374 -0.00057788740098 0
0.00201247740529 -0.0079846779953 0
0.00193707082229 -0.00376106494669 0
0.00145723994846 -0.000655307640286 0
0.000494901499378 -0.00141532060529 0
-0.00227756345446 -0.00621659130247 0
-0.00178697715938 -0.00148362553457 0
0.000322211264221 -0.000419174248624 0
0.000668877787642 -0.00623750316719 0
-4.29578883043e-05 -0.0233451090878 0
6.25290836824e-05 -0.000122812462966 0
-0.00100380080791 -0.0189388649986 0
0.000110357475515 -0.00057902530476 0
0.000643465985743 -0.000434635691879 0
0.000356193609575 -0.0065461177538 0
0.00110766106254 -0.000156073075274 0
-0.000737254400565 -0.000922806217778 0
-0.00109148845251 -0.00758192811004 0
0.00186427270489 -0.00732596526821 0
-0.00222353676068 -0.00269500155872 0
0.000104442712236 -0.00338325833959 0
-0.00100216471022 -0.00143829565397 0
0.000301366980408 -7.79006559108e-05 0
-0.00108922607901 -0.000151742504414 0
0.00107149801507 -0.00628642188633 0
-0.00149554721256 -0.00279515296811 0
-0.00109385928257 -0.00413166320431 0
0.000768966059777 0.000252000281107 0
-0.000751868641053 0.000258730480573 0
0.00106120609361 -0.013256479999 0
0.00127472825192 -0.00458820009204 0
0.000724639548325 -0.00228320710202 0
0.00194556572347 -0.00202844968104 0
-0.00110889792766 -0.000260731541975 0
0.00030741508736 -0.000195383883401 0
-0.000818367706974 -0.00043079722156 0
0.000413982058751 -0.022039374951 0
0.000206084939315 -0.0103849910922 0
-0.00024759548084 -0.0134504088464 0
0.000706254797636 -0.000860132282455 0
-0.000114667073017 -0.00219668285125 0
5.1693337519e-06 0.000173336969774 0
0.000364056308519 -0.000914527099379 0
1.78279993413e-05 0.000169577568801 0
0.000608341917074 -0.00100090777328 0
0.00235133355728 -0.00608430684805 0
0.000271129571422 -0.02608225327 0
-7.9629020922e-05 -0.009982452243 0
-0.00107697761815 -0.000422345841026 0
-0.00194895444261 -0.00451877622838 0
0.00238404690476 -0.00723385143122 0
0.00111476289209 -0.00224007679638 0
0.00114685121117 -0.00164229394493 0
-0.00126192845169 -0.0061076756929 0
0.000692776036316 -0.0180799737247 0
0.000294615341508 -0.00157429875112 0
-6.10867284555e-05 -6.93651848569e-05 0
-0.00151897650277 -0.00104535619291 0
-0.00101830732753 -0.0234077743817 0
-0.00137557237077 -0.000479539000971 0
0.000839303392131 -0.000440014425075 0
7.14947777755e-05 -0.00028241734005 0
3.7755077565e-05 7.53609781628e-05 0
-1.22664827125e-05 5.71570854191e-05 0
0.00137579443835 -0.00988643067858 0
8.45246759289e-05 0.000373934239909 0
-6.07231658548e-05 0.000367958803502 0
-0.00234820223108 -0.0109135812605 0
0.000221933364776 -6.89552057081e-05 0
-0.000849673221407 0.000106143900168 0
0.000866444800047 0.000102148602271 0
0.00190688566078 -0.00151949012784 0
-0.00110475012416 -0.00459349848977 0
-8.87582001559e-05 -0.00108434368908 0
0.000328231239962 -0.000570966284966 0
0.000856533224398 -0.0134161276286 0
-0.000627092124611 -0.00117923190701 0
0.000933103585159 -0.00782557743905 0
-0.00166908726216 -0.0141620804258 0
-0.00233266505598 -0.00744848921004 0
-0.000856020251229 -0.0053891970254 0
-0.0004759144314 -0.0190075203938 0
-5.06237065113e-05 0.000467500130677 0
7.3367725684e-05 0.000460632863417 0
-0.00190941506419 -0.00242705994874 0
-0.000508351196531 -0.00139904686618 0
-0.000194987575097 0.000131804797098 0
0.00256030361378 -0.0119973357189 0
0.000217517743857 0.000128638036059 0
-0.000322937428069 -0.000553856864201 0
0.000689301710212 -0.0204684737933 0
-0.00184368654007 -0.00132424470432 0
-0.00241718848929 -0.00673552882258 0
0.00162543738972 -0.000964785506303 0
-0.000671076892995 -0.00935836845504 0
-4.55845899353e-05 0.000326856373182 0
6.8328634708e-05 0.000321329065874 0
0.00151584848385 -0.000975580697974 0
0.000918073032497 -4.88544523948e-05 0
-0.000912389225932 -4.65562819422e-05 0
-0.000134761289913 -0.000377380043237 0
0.000519314338179 -0.0170741836974 0
-0.0017561469629 -0.00748170698088 0
0.00177547187302 -0.0015045399234 0