# vtk DataFile Version 2.0
Generated with Solid Solver
ASCII
DATASET UNSTRUCTURED_GRID
POINTS 856 float 
0.0 3.5 0.0
1.6 3.5 0.0
1.6 4.0 0.0
0.0 4.0 0.0
0.0695652173912 3.5 0.0
0.139130434782 3.5 0.0
0.208695652174 3.5 0.0
0.278260869565 3.5 0.0
0.347826086956 3.5 0.0
0.417391304347 3.5 0.0
0.486956521738 3.5 0.0
0.556521739129 3.5 0.0
0.62608695652 3.5 0.0
0.695652173911 3.5 0.0
0.765217391302 3.5 0.0
0.834782608694 3.5 0.0
0.904347826085 3.5 0.0
0.973913043477 3.5 0.0
1.04347826087 3.5 0.0
1.11304347826 3.5 0.0
1.18260869565 3.5 0.0
1.25217391304 3.5 0.0
1.32173913043 3.5 0.0
1.39130434783 3.5 0.0
1.46086956522 3.5 0.0
1.53043478261 3.5 0.0
1.6 3.56430812594 0.0
1.6 3.62270835268 0.0
1.6 3.6757434324 0.0
1.6 3.7239062376 0.0
1.6 3.76764438351 0.0
1.6 3.80736436404 0.0
1.6 3.84343531219 0.0
1.6 3.87619247117 0.0
1.6 3.90594026707 0.0
1.6 3.93295517284 0.0
1.6 3.95748825478 0.0
1.6 3.97976750982 0.0
1.58000000587 4.0 0.0
1.55999996633 4.0 0.0
1.54000002214 4.0 0.0
1.51999997198 4.0 0.0
1.50000000455 4.0 0.0
1.48000000216 4.0 0.0
1.45999997931 4.0 0.0
1.44000002484 4.0 0.0
1.41999997044 4.0 0.0
1.40000002096 4.0 0.0
1.37999999963 4.0 0.0
1.35999999626 4.0 0.0
1.34000002179 4.0 0.0
1.31999997343 4.0 0.0
1.3000000318 4.0 0.0
1.27999998783 4.0 0.0
1.26000000202 4.0 0.0
1.24000001295 4.0 0.0
1.21999998074 4.0 0.0
1.20000003685 4.0 0.0
1.17999998163 4.0 0.0
1.16000001473 4.0 0.0
1.14000000469 4.0 0.0
1.11999999139 4.0 0.0
1.10000003625 4.0 0.0
1.07999997877 4.0 0.0
1.06000002802 4.0 0.0
1.04000000338 4.0 0.0
1.02000000764 4.0 0.0
1.00000002986 4.0 0.0
0.979999980237 4.0 0.0
0.960000035522 4.0 0.0
0.939999990881 4.0 0.0
0.920000014619 4.0 0.0
0.900000017903 4.0 0.0
0.879999986222 4.0 0.0
0.860000037278 4.0 0.0
0.839999982352 4.0 0.0
0.820000022783 4.0 0.0
0.800000000002 4.0 0.0
0.779999977222 4.0 0.0
0.760000017652 4.0 0.0
0.739999962726 4.0 0.0
0.720000013782 4.0 0.0
0.699999982101 4.0 0.0
0.679999985385 4.0 0.0
0.660000009123 4.0 0.0
0.639999964482 4.0 0.0
0.620000019766 4.0 0.0
0.599999970141 4.0 0.0
0.57999999236 4.0 0.0
0.559999996622 4.0 0.0
0.539999971983 4.0 0.0
0.520000021235 4.0 0.0
0.499999963756 4.0 0.0
0.480000008612 4.0 0.0
0.459999995315 4.0 0.0
0.439999985272 4.0 0.0
0.420000018371 4.0 0.0
0.39999996315 4.0 0.0
0.380000019261 4.0 0.0
0.359999987052 4.0 0.0
0.339999997986 4.0 0.0
0.320000012172 4.0 0.0
0.299999968206 4.0 0.0
0.280000026575 4.0 0.0
0.259999978213 4.0 0.0
0.240000003742 4.0 0.0
0.220000000371 4.0 0.0
0.199999979041 4.0 0.0
0.180000029557 4.0 0.0
0.159999975162 4.0 0.0
0.140000020694 4.0 0.0
0.119999997846 4.0 0.0
0.0999999954514 4.0 0.0
0.0800000280232 4.0 0.0
0.0599999778571 4.0 0.0
0.0400000336732 4.0 0.0
0.0199999941324 4.0 0.0
0.0 3.97976750982 0.0
0.0 3.95748825478 0.0
0.0 3.93295517284 0.0
0.0 3.90594026707 0.0
0.0 3.87619247117 0.0
0.0 3.84343531219 0.0
0.0 3.80736436404 0.0
0.0 3.76764438351 0.0
0.0 3.7239062376 0.0
0.0 3.6757434324 0.0
0.0 3.62270835268 0.0
0.0 3.56430812594 0.0
0.249757905714 3.75212552678 0.0
1.35000000902 3.74954526597 0.0
0.488714190926 3.75947467509 0.0
0.727445026698 3.75983525744 0.0
0.962900270309 3.76055270856 0.0
1.17161197633 3.81755162829 0.0
0.130754031542 3.86878251069 0.0
1.46924596846 3.86878251069 0.0
0.369913852535 3.84868154079 0.0
0.603236233099 3.84763103091 0.0
0.843402107212 3.84736931152 0.0
1.05041705507 3.86611282467 0.0
0.250539323282 3.87785527135 0.0
1.34882231626 3.87787871523 0.0
0.468661896861 3.89189320321 0.0
0.704258117309 3.89639128976 0.0
0.94963922804 3.89654080835 0.0
1.25000000748 3.89875296068 0.0
1.12879020517 3.91059303421 0.0
0.548928478218 3.91905583534 0.0
0.7889268651 3.91906062813 0.0
0.0712526194949 3.93011432704 0.0
1.52874738051 3.93011432704 0.0
1.4740071133 3.74293106904 0.0
0.125992886699 3.74293106904 0.0
0.329956761073 3.92118145982 0.0
1.09412206522 3.66725831207 0.0
0.190000004299 3.92542384899 0.0
1.41098423528 3.92728100222 0.0
0.629999992124 3.92414139091 0.0
0.87000001175 3.92414140592 0.0
0.853391941071 3.71944243214 0.0
0.610032822379 3.72536074396 0.0
0.41090315692 3.92892991009 0.0
0.370435019193 3.7251305208 0.0
1.01000001875 3.93130199947 0.0
1.22823348571 3.68694249365 0.0
1.18894423177 3.93487447818 0.0
1.31063576122 3.93502724255 0.0
0.129927636183 3.94112156482 0.0
1.47007236382 3.94112156482 0.0
1.07646504896 3.76194504855 0.0
1.07000000339 3.94017719684 0.0
0.270000002394 3.93875928556 0.0
1.26759839792 3.80243333593 0.0
0.770332946246 3.83880063275 0.0
0.530342720064 3.83880306325 0.0
0.189898092614 3.63474333735 0.0
1.4101772205 3.6313147556 0.0
0.942883893479 3.62966700486 0.0
0.510631148905 3.62429064243 0.0
0.754670889573 3.63369080225 0.0
0.489999986184 3.94463854908 0.0
0.732500655853 3.9452729887 0.0
0.193627936713 3.81528931126 0.0
1.40183871842 3.81461096917 0.0
0.928721275957 3.94715071018 0.0
0.0604617896557 3.86281267064 0.0
1.53953821034 3.86281267065 0.0
1.25036152032 3.94913766834 0.0
0.30096552553 3.81141484704 0.0
0.297089357677 3.66359682597 0.0
0.394212311705 3.61316974741 0.0
0.831051681923 3.94633984116 0.0
0.592085081305 3.94901138542 0.0
0.669405291514 3.95495209798 0.0
1.3611855791 3.94637621082 0.0
0.928496698914 3.82436133158 0.0
0.444093171593 3.8271987226 0.0
0.683378885111 3.8234871366 0.0
0.372430737197 3.95235208784 0.0
1.19348789949 3.87019408468 0.0
1.15124363553 3.95467023547 0.0
0.229287653728 3.96038323295 0.0
0.646635519079 3.61231195482 0.0
0.986819459779 3.84973028271 0.0
1.11214815433 3.84770266014 0.0
1.50610225987 3.6604664246 0.0
0.0938977401332 3.6604664246 0.0
0.531976760298 3.96138656711 0.0
0.451361041931 3.96112773652 0.0
0.771976835888 3.96138886125 0.0
1.53311213884 3.79435404356 0.0
0.066887861162 3.79435404356 0.0
0.970836553066 3.9620233382 0.0
0.311702426505 3.96111572975 0.0
1.31698094247 3.6658628839 0.0
1.11177843379 3.95948388532 0.0
1.15003411964 3.72957279566 0.0
0.890058924798 3.96133576813 0.0
0.169108880648 3.96040269401 0.0
1.42850737314 3.96465656678 0.0
0.0426347993992 3.9610175717 0.0
1.5573652006 3.9610175717 0.0
1.28993057938 3.85776473604 0.0
1.34652710411 3.82072629166 0.0
0.897316840472 3.87585124602 0.0
0.814484972147 3.79171515708 0.0
0.573290986674 3.7879873938 0.0
1.02164717476 3.69631051635 0.0
0.41798215839 3.87594988344 0.0
1.18469655214 3.6045863568 0.0
0.657426542805 3.87734841349 0.0
0.0893439701605 3.9657484063 0.0
1.51065602984 3.9657484063 0.0
0.850202761783 3.61862953305 0.0
0.185775988195 3.86980628439 0.0
1.41422401181 3.86980628439 0.0
0.305957202498 3.87340573583 0.0
0.629999992124 3.96272981278 0.0
0.686026569054 3.68766751472 0.0
1.03220081924 3.96436031967 0.0
0.445441337222 3.69456289967 0.0
1.33308537187 3.96770341358 0.0
1.0249206042 3.60512275769 0.0
0.128645746764 3.81165411571 0.0
1.47135425324 3.81165411571 0.0
1.29077706219 3.96625078806 0.0
1.21302440104 3.96491551313 0.0
0.373320303365 3.89968789902 0.0
0.409457647309 3.96502881891 0.0
1.39076199588 3.96614348387 0.0
1.2156032112 3.76624353786 0.0
0.383301616321 3.78976397621 0.0
0.593246012246 3.8948346816 0.0
0.833004203108 3.89475034107 0.0
0.187583903859 3.70688411961 0.0
1.41241609614 3.70688411961 0.0
1.08573330585 3.89673930733 0.0
1.04303343403 3.81530385578 0.0
0.103644791029 3.90516202075 0.0
1.49635520897 3.90516202075 0.0
1.23586605501 3.85112068621 0.0
0.921814270996 3.70213058021 0.0
0.532219762185 3.7029333087 0.0
1.28217045716 3.7375098981 0.0
0.779621693208 3.70806977531 0.0
0.998890529268 3.88397615296 0.0
0.659406618131 3.76469373474 0.0
0.230043799244 3.91599372373 0.0
1.53690667654 3.72637971331 0.0
0.0630933234627 3.72637971331 0.0
0.153148105836 3.90639761309 0.0
1.4478092366 3.90500627713 0.0
0.512139854501 3.90538519137 0.0
0.750930702019 3.90340708 0.0
0.0409150717909 3.90046251393 0.0
1.55908492821 3.90046251393 0.0
0.702096631597 3.96656725638 0.0
0.246204062466 3.82734823738 0.0
0.872012730916 3.80079945556 0.0
0.313419524246 3.75328100976 0.0
1.26305184675 3.57725747237 0.0
1.04341944162 3.90846795586 0.0
0.697725469476 3.93030230037 0.0
0.27003033309 3.96477332623 0.0
0.632456188669 3.80120134001 0.0
0.55988813035 3.96676596088 0.0
0.798125231733 3.9668778541 0.0
0.861599835739 3.96514225679 0.0
0.130196681328 3.96566148827 0.0
1.46980331867 3.96566148827 0.0
0.337465698618 3.96873835045 0.0
1.10690030388 3.57445060302 0.0
1.07038768144 3.96631210642 0.0
0.201908835349 3.96783542832 0.0
1.17640357301 3.96795841043 0.0
0.482502283815 3.8454083814 0.0
1.37723451734 3.90442225885 0.0
0.722497886517 3.84543272537 0.0
0.254749007352 3.57960328731 0.0
0.449206209982 3.91785378051 0.0
0.907803563184 3.91575967116 0.0
0.997592319531 3.96832081731 0.0
1.3597087328 3.59165409162 0.0
0.797785363131 3.87112617582 0.0
0.557788209884 3.87112741711 0.0
0.133223775006 3.57024633267 0.0
1.46673023696 3.57019175074 0.0
0.296361477075 3.90524448543 0.0
1.29555045611 3.90092076583 0.0
1.11951450862 3.79592056714 0.0
0.341558640376 3.57546927501 0.0
0.974255514016 3.92370320024 0.0
0.664786082443 3.91707165091 0.0
1.1442561544 3.86460464827 0.0
0.430695849932 3.74774845865 0.0
1.22439218721 3.92431164104 0.0
0.917330800791 3.76752811157 0.0
0.0995806821614 3.83759752714 0.0
1.50041931784 3.83759752714 0.0
0.586492545959 3.6571718064 0.0
1.16809690663 3.90376349956 0.0
0.490525946651 3.9687439861 0.0
0.170108846494 3.77025381333 0.0
0.726723612771 3.96611364881 0.0
1.42998397347 3.77014833166 0.0
1.55978981314 3.82099569701 0.0
0.0402101868575 3.82099569701 0.0
1.10043652243 3.92805072974 0.0
1.34111814411 3.91924529479 0.0
1.27430066613 3.93505265881 0.0
0.56431092584 3.57086686051 0.0
0.930516510487 3.96969091611 0.0
1.17713743504 3.67180033503 0.0
0.801256410508 3.5635758738 0.0
1.37979186382 3.84566323689 0.0
1.02277822921 3.7577258162 0.0
0.252009847995 3.68167957306 0.0
0.0497138210057 3.58866012032 0.0
1.55028617899 3.58866012032 0.0
0.466046622144 3.57331739513 0.0
0.343019074867 3.81481221655 0.0
0.0645235269233 3.96909610548 0.0
1.53547647308 3.96909610548 0.0
0.0310141903995 3.92955737583 0.0
[...]
POINT_DATA 856
VECTORS Displacement float
0.0 0.0 0
0.0 0.0 0
-7.5695425711e-05 0.000359846660591 0
9.55517509567e-05 0.000366362763027 0
0.0 0.0 0
0.0 0.0 0
0.0 0.0 0
0.0 0.0 0
0.0 0.0 0
0.0 0.0 0
0.0 0.0 0
0.0 0.0 0
0.0 0.0 0
0.0 0.0 0
0.0 0.0 0
0.0 0.0 0
0.0 0.0 0
0.0 0.0 0
0.0 0.0 0
0.0 0.0 0
0.0 0.0 0
0.0 0.0 0
0.0 0.0 0
0.0 0.0 0
0.0 0.0 0
0.0 0.0 0
0.000260293809112 -0.000117576837098 0
0.000440203476645 -8.87435096335e-05 0
0.000540219044659 -7.51146260725e-06 0
0.000552382770705 9.072985383e-05 0
0.000513046017438 0.0001767632486 0
0.000440493875862 0.000247497032669 0
0.000350005217149 0.000297669287837 0
0.000260321374318 0.000330820903579 0
0.00017391340917 0.000349920890796 0
9.66314385302e-05 0.000357416524608 0
3.03886230897e-05 0.000360101370921 0
-2.62396631196e-05 0.000360143777104 0
-7.54008901912e-05 0.000311096443507 0
-7.5065549545e-05 0.000264311618469 0
-7.63031749802e-05 0.000220258936531 0
-8.01319878334e-05 0.000178977912542 0
-8.76901294528e-05 0.000139977920949 0
-9.99143645776e-05 0.000101173080679 0
-0.000117497810917 6.37329083797e-05 0
-0.000140844529561 2.32218083583e-05 0
-0.00017098349301 -1.89746118485e-05 0
-0.000206533917182 -6.71102107274e-05 0
-0.000249894976518 -0.000119056150094 0
-0.000299951699289 -0.000180612184435 0
-0.000359151479464 -0.000250569371764 0
-0.000425461741569 -0.000332380249764 0
-0.000497500025928 -0.000427230682937 0
-0.000580949715084 -0.000535974751832 0
-0.000669766263456 -0.00066112039998 0
-0.000764909514222 -0.000807766009246 0
-0.00087083812416 -0.000977236754796 0
-0.000989457558366 -0.00116931447399 0
-0.00111192782282 -0.00139411895307 0
-0.00124909987343 -0.0016514205514 0
-0.00138676891173 -0.00194716292663 0
-0.00153099949856 -0.00228946609487 0
-0.00169029741243 -0.00267362906183 0
-0.00185089153716 -0.00311800765008 0
-0.00203086831177 -0.00362941225729 0
-0.0022054478215 -0.00421986928265 0
-0.00240082769719 -0.00491488179485 0
-0.00257857717189 -0.0057267286866 0
-0.00277050859452 -0.00667993320146 0
-0.00296962183189 -0.00787982607554 0
-0.00309066538247 -0.00938281413482 0
-0.00306003612533 -0.0116207593569 0
-0.00271981888704 -0.0142092792429 0
-0.00223168891097 -0.0163095422015 0
-0.00171240103904 -0.0179327647488 0
-0.00112430306682 -0.0190863182496 0
-0.000529723752071 -0.0197735896479 0
5.75882432789e-05 -0.019998307149 0
0.000615412828208 -0.0197786641597 0
0.00121081174761 -0.0190901657254 0
0.00174795128235 -0.0179365297745 0
0.00231974879146 -0.0163209722723 0
0.00278373333473 -0.0142198997884 0
0.00309945894379 -0.0116271540728 0
0.00313886076758 -0.0093962401853 0
0.00297220595134 -0.00786541342777 0
0.00280993915048 -0.00669273087277 0
0.00260518046737 -0.00571993931617 0
0.0024148677496 -0.0049062173842 0
0.00222899842956 -0.00422010167757 0
0.002054598761 -0.00363110558647 0
0.00187854619365 -0.00311490285842 0
0.00171673685446 -0.00266635639788 0
0.00155164466605 -0.00227830945459 0
0.00140368813028 -0.00194099244966 0
0.00126124089318 -0.00165008590767 0
0.00113351806722 -0.00139234636162 0
0.00100854588305 -0.0011688743783 0
0.000889957792652 -0.000975569259228 0
0.000784985054437 -0.000806287010974 0
0.000686609654154 -0.000661741825113 0
0.000597684234532 -0.000534685833493 0
0.000515196096516 -0.000426339845646 0
0.000443381741243 -0.000331327488311 0
0.000377320183453 -0.000250894368582 0
0.000320491443206 -0.000179525175012 0
0.000269926169297 -0.000118436765689 0
0.000225884125773 -6.55616674529e-05 0
0.000190530700533 -1.72762423707e-05 0
0.000160587644079 2.51277014368e-05 0
0.000137330247068 6.64242161023e-05 0
0.000119659746699 0.000104471202029 0
0.000107483083946 0.000143729473391 0
9.99578071509e-05 0.000183269533113 0
9.61482603016e-05 0.000225105886891 0
9.49179228014e-05 0.000269717881077 0
9.52560527584e-05 0.000317059185561 0
4.55370414893e-05 0.00036666106398 0
-1.17035560251e-05 0.000366621966796 0
-7.86156197167e-05 0.000363945806485 0
-0.000156633431481 0.000356472300807 0
-0.000243871092913 0.000337427393263 0
-0.00033455332774 0.000304357859871 0
-0.000426224245113 0.000254273058521 0
-0.000500348214395 0.000183617073804 0
-0.000541705694014 9.74455609515e-05 0
-0.000531956630046 -1.41330826329e-06 0
-0.000434362258578 -8.38345218708e-05 0
-0.000256768775452 -0.000114327477569 0
-0.00076342516503 -0.000185968343332 0
0.000781868998581 -0.000185617232946 0
-0.00142639486637 -0.00196731993838 0
-0.000904732736051 -0.00652454345662 0
0.00156226176607 -0.00481447251263 0
0.000957066796681 -0.00134578347051 0
-0.000287414981923 8.99079452533e-05 0
0.000303386538854 8.68095559281e-05 0
-0.00056168056868 -0.000785403825862 0
-0.00138251903639 -0.00518438592773 0
0.000712919207711 -0.010389800353 0
0.000958308552401 -0.00365853133501 0
-0.000263116992375 -0.000162859755216 0
0.000280102355616 -0.000166571034446 0
-0.000305451524713 -0.001955890068 0
-0.00112494734512 -0.0106140730496 0
0.00110117496903 -0.00778521136645 0
0.000147833549424 -0.000647073677138 0
5.88873228933e-05 -0.0020138899629 0
-4.63103029709e-05 -0.00375038485291 0
-0.000124261856103 -0.0147387634353 0
-8.66495359336e-05 0.000201107640638 0
0.00010456313611 0.000196559985721 0
0.000617582211087 3.23973942256e-05 0
-0.000605670021746 3.50761950426e-05 0
4.87353060819e-05 -0.000523268123171 0
0.00140309025303 -0.00155961940658 0
-5.23851604197e-05 -1.09650973003e-05 0
6.39045812301e-05 -1.05062849741e-05 0
-0.000396779649506 -0.00698627869138 0
0.000754614818023 -0.0131654497877 0
0.000633399247581 -0.00545577293792 0
-0.00154023235122 -0.00362362625546 0
0.000209207168583 -0.0011952493793 0
-0.00111337630486 -0.000711017693025 0
-4.39116381761e-05 -0.00516903546287 0
0.00112792394531 -0.000649993541694 0
-0.000262486576687 -0.00120502174402 0
-7.9958125109e-05 -0.000321507966433 0
-3.22163351396e-05 9.76133016102e-05 0
5.03561956548e-05 9.49041642131e-05 0
0.00153602258429 -0.00253036874371 0
-0.000444532362891 -0.00325363720955 0
9.5022186904e-05 -0.000241993687408 0
0.000784944031761 -0.000527833592717 0
-0.000459196807381 -0.0101798068359 0
-0.0011448698274 -0.00308159763653 0
-0.00061596928407 -7.46545367965e-05 0
0.000617550462616 -7.7227530829e-05 0
0.000970076428284 -0.00242520885863 0
-0.00119487837127 -0.00121098616632 0
-0.000366778972361 -0.00306905372289 0
0.000542503612629 -0.00236628685211 0
-0.000356353202865 -0.0143689222469 0
-0.000503608424742 -3.20886596272e-05 0
0.000527032584708 -4.38814704865e-05 0
0.000142925030804 -0.00987460513978 0
-0.000296180467756 0.000196217631506 0
0.0003122791544 0.000191395226998 0
-0.000296316486437 -0.000668212740497 0
-0.00066207863156 -0.000366775758007 0
-0.000894231941189 -0.000302468893817 0
-0.000959060301894 -0.000544482695465 0
0.000230569175026 -0.0160973800724 0
0.000584505980727 -0.00527343421253 0
0.000190198389725 -0.00986290715225 0
-7.35365027306e-05 -0.000141936853131 0
0.00151642576062 -0.0071330260132 0
-0.000923147271697 -0.0015390907965 0
-0.00141164094593 -0.007500566241 0
0.000400150239152 -0.000843911873419 0
0.000458167350331 -0.0011317338466 0
-0.000611284140065 -0.00169773846434 0
0.000141598748868 -0.000118711214285 0
-0.000933345839031 -0.00200180090986 0
0.0014245940838 -0.00555991622337 0
0.000903753044573 -0.00224505465767 0
0.000569615888206 1.02263602286e-05 0
-0.000562677358537 1.32615271192e-05 0
0.000982596489037 -0.00332055875943 0
0.000742487893881 -0.001735254304 0
1.5694838496e-05 -0.0171777663019 0
0.000499147186106 0.000131717073856 0
-0.00048525745179 0.000136273691653 0
-0.000861606507847 -0.00707792794909 0
0.000318376449784 -0.000443874645014 0
0.000871186841185 -0.000266010086112 0
-0.00080678477744 -0.00235469775483 0
0.00136970904599 -0.00137301518829 0
-3.56685811786e-05 -0.0135622371368 0
6.09520536973e-05 2.26272175973e-05 0
-5.85982229088e-05 1.47518356715e-05 0
-1.40509333903e-06 0.000263402644841 0
2.01845354634e-05 0.000258064155249 0
0.000433456810124 -0.000404179263022 0
0.000563875152274 -0.000180103482415 0
0.00125914281547 -0.00983116155022 0
0.000224558106331 -0.0082950867627 0
-0.00158361619552 -0.00373205497784 0
0.00153083685492 -0.00271948058156 0
-0.000402738807054 -0.00125187644911 0
0.000946033393523 -0.000583774997532 0
-0.00130315560796 -0.00779177040438 0
2.15120084038e-05 0.000168139651741 0
-2.58740970592e-06 0.000164111100937 0
0.000383124166058 -0.0026443500137 0
-0.000291229168233 -2.32967132765e-06 0
0.000306777867927 -3.10128724934e-06 0
-0.000309713305354 -0.000382517081388 0
0.000921421044818 -0.00715048095268 0
-0.00106604249107 -0.00397231386913 0
-0.00109706633056 -0.0043863924396 0
-0.00134309786104 -0.00118610077399 0
-0.00023100455252 -0.000248021892277 0
0.00106650597616 -0.00142329665187 0
-0.000470883845621 7.11448138269e-05 0
0.000485928823883 6.78891188788e-05 0
-0.000326328596433 -0.000437042589603 0
-0.000553841615107 -0.000985546129389 0
-0.000121408902374 -0.000823637416162 0
0.000651682381806 -0.00121053391566 0
-0.0001142495518 -6.96540582092e-05 0
0.00108206464678 -0.000861408028055 0
-0.000961905132577 -0.000874582070298 0
-0.000745591006294 -0.00517415431704 0
0.000523073123044 -0.012978199589 0
-0.000700421447499 -6.08783659904e-05 0
0.000709497495291 -6.07061500436e-05 0
0.000374000864296 -0.00284859068791 0
0.00143795474517 -0.00359149989649 0
-0.000161937425625 0.000140944347789 0
0.000179120703015 0.000137253665519 0
0.000549752182247 -0.000744825404397 0
0.00117138468879 -0.00424482990305 0
-0.00151970443982 -0.00216665945957 0
0.000960214270444 -0.000436012365564 0
-0.000238358207021 -0.00527961499162 0
0.00100806881122 -0.00541684441288 0
-0.00146812065084 -0.00538279624529 0
-6.91583528893e-05 -0.000105968577087 0
0.00058753188471 7.07725787093e-05 0
-0.000576831324361 7.51677564637e-05 0
-0.000145926637831 5.91579103875e-05 0
0.000169562348441 5.80107194705e-05 0
-0.000201393123468 -0.00280151195451 0
-0.000681894810015 -0.012992114893 0
-0.000177657808894 0.000252436485766 0
0.000194789096248 0.000247052174295 0
0.000363270121536 -0.0130521748569 0
-0.000509881540041 -0.000157898019286 0
0.00100171808537 -0.00792935048153 0
-0.000902505756874 -0.000424030645782 0
0.000643202815776 -0.000258193367405 0
0.000324785868325 -0.00396909049762 0
-0.000703456053758 -0.0114234982935 0
0.00024064892611 -0.000257837692553 0
-0.00158799981509 -0.00546075282966 0
0.00118585219098 -0.00413008559514 0
4.80364045279e-05 -0.0179304393874 0
-8.99564153336e-05 -0.0158591199021 0
4.30353858264e-05 9.35740015238e-05 0
-2.40457154626e-05 9.05607575161e-05 0
0.00044656585831 -0.000603297697287 0
0.000821713087946 -0.000685953177202 0
-0.00107633526043 -0.00327466359322 0
0.000128174805072 -5.18185166286e-05 0
-0.000721547370635 -0.00137840714827 0
-0.000894658011599 -0.00214051281035 0
0.00014824177253 -8.63643096916e-05 0
-0.00111109341694 -0.00943019472811 0
-0.000513798264453 -0.000132556931544 0
8.12492155559e-05 -0.00167005848598 0
0.000973408399028 -0.0106019685658 0
-0.00123372378219 -0.0057380871779 0
0.000554011936302 -0.000129492509473 0
-2.33308550063e-05 -0.0119971229717 0
-0.00091605864892 -0.00390148795091 0
-0.00033485237828 -2.38877958248e-05 0
0.000338935532699 -2.49739578741e-05 0
-9.27232856311e-05 -0.000342204577929 0
0.000137687406817 -0.000378395160326 0
0.00127384018586 -0.00199881903756 0
-0.00063536244799 -0.000263180563213 0
0.000405820963914 -0.00677111517545 0
-0.000834420181308 -0.00891398355626 0
0.000624380869041 -0.00174420886049 0
-0.00126211931659 -0.00123773368579 0
-0.000103187124185 -0.000852752940228 0
0.00134298774071 -0.00596652554346 0
-0.00038266308198 0.000122526709844 0
0.000397855435502 0.000118821603189 0
-0.00132794095247 -0.00225142050894 0
0.000119326276851 -0.00143410545089 0
0.00101879142144 -0.00240483922032 0
-0.000606050061468 -8.39092467717e-06 0
0.000210980345795 -0.0151232532365 0
0.000619397154871 -1.08414986041e-05 0
0.000423561295216 0.00019211533317 0
-0.000408821953681 0.000197515821439 0
-0.000212345458605 -0.00254233531244 0
4.86828731417e-05 -0.000196886083975 0
-0.000134350114764 -0.000504628368458 0
-0.000798364378465 -0.000908256630338 0
-0.000822595930265 -0.0100475270386 0
0.00125384084359 -0.00092253729706 0
2.98315070709e-06 -0.00133894775769 0
0.000422949724416 -8.2822712682e-05 0
0.00163473509866 -0.00349989146 0
-0.000807438131491 -0.000189910194472 0
-0.000349781994616 -2.66666654463e-05 0
0.000353931342351 -2.91423486525e-05 0
-0.000806641829861 -0.000574574822876 0
-0.000730991158018 -0.00058982773515 0
2.31259350979e-05 0.000216795689912 0
-4.1225972041e-06 0.000212070247729 0
-8.98680760284e-05 0.000284576594768 0
0.000107788906837 0.000278908820649 0
-0.000473981914439 -0.00141795705599 0
-0.000277959341738 -0.000538202433938 0
-0.00106381945451 -0.000556169734062 0
-0.00147261901452 -0.00269192446476 0
-0.000485386522538 -0.00786640706982 0
0.000463448294703 -0.00146490259437 0
0.000778251766432 -0.000315498303703 0
-0.000390905597743 3.657527925e-05 0
-0.000523335219883 -0.000693085872699 0
0.000406370785382 3.97820941194e-05 0
0.000919446973383 -0.000862681069841 0
0.00147735871307 -0.00706411297815 0
-0.00108720271585 -0.00208312079784 0
0.000122293053505 -0.0103634779536 0
-0.00132273846935 -0.00398046054408 0
-0.000202371616556 -0.000173789956481 0
-6.43650833767e-05 0.000149399899896 0
8.24075779594e-05 0.00014565942248 0
0.00141771339769 -0.00591846994178 0
0.00120097173521 -0.00876012104134 0
0.00120284309413 -0.00298828080894 0
-0.000165697402156 0.000193383267817 0
0.000182908157886 0.000188889425789 0
-0.000633414195048 5.33256601089e-06 0
0.000642566432734 2.86051461846e-06 0
-0.000364519684855 -0.0184714460618 0
0.000960258841982 -0.0117590148531 0
0.000657576996934 -0.000993886254901 0
2.73477353721e-05 0.000300183438549 0
-8.25337470294e-06 0.000294409645902 0
0.00159999646621 -0.00550397916143 0
-0.00103804882786 -0.0065270955683 0
-0.000346947043639 -0.000353705385994 0
-0.000315094192886 -7.52560531739e-05 0
0.00151221550212 -0.00189479896161 0
-4.42321355021e-05 5.46718924532e-05 0
6.70791631029e-05 -0.00109528926534 0
7.1291433182e-05 4.83814869935e-05 0
0.000892674986541 -0.00146509656603 0
0.0012595937407 -0.00878127245573 0
-0.000413033003451 -0.0020173463059 0
-0.00151883316215 -0.00660104049207 0
0.000693003171847 -0.00111676599524 0
-0.000723458517251 -0.00111983340208 0
-0.000161110151001 -4.33415794448e-05 0
0.000801144037173 -0.000160562187612 0
-0.000129487977582 -3.09112512036e-05 0
-0.000743050730654 -0.00270675241258 0
-0.000783197710669 -0.0112153362057 0
-0.00122440974249 -0.00201469742271 0
0.000266613146702 -0.000198727601247 0
-2.66936040685e-05 -0.00459427343222 0
0.000209957788818 -0.0150459026202 0
-0.00107752302459 -0.00785768149801 0
0.000150610973361 -0.00069653949885 0
0.000804960744777 -0.0110099696929 0
-0.00133866399568 -0.00891144181047 0
-0.000260963344032 0.000249167521338 0
0.000277338489128 0.000243615706886 0
-0.000314689864417 -0.0040682474696 0
0.00145032367918 -0.00369136417337 0
0.00037998224204 -6.13122529291e-05 0
-0.000473205925093 -0.000551040537232 0
0.000367834884636 -0.000350438532612 0
-0.000619271348109 -0.000110805093973 0
-8.99435937735e-05 -0.000182197016218 0
-0.00160082953854 -0.00286110065894 0
-0.000615132357821 -0.00167188644123 0
-0.000410964015991 -0.000241638849956 0
-0.000356139126138 -5.76442859467e-05 0
0.00114024228778 -0.00207102968408 0
0.00134483398004 -0.00282365333527 0
0.000576453814179 -0.0173643317086 0
0.000478885581516 -0.0022193123333 0
-0.0002781493819 0.000146691543788 0
0.000294549234582 0.000142767002146 0
0.000568444099772 3.14532584075e-05 0
-0.000560162471244 3.57058737446e-05 0
0.000645815109254 -0.00011630719075 0
-5.92744450564e-05 -0.00670032260805 0
-0.00164810640257 -0.00852379113749 0
9.70067771795e-05 5.54026084407e-05 0
-7.96378462918e-05 5.11606633682e-05 0
-0.000999849449093 -0.000467594480971 0
0.000576591936078 -0.000781049115025 0
-0.00120528095425 -0.0121914160622 0
-2.67730960617e-05 -7.409164826e-05 0
0.000331015516633 -0.00288498797897 0
-0.00048847746382 -0.0143808642659 0
-0.00128968680229 -0.00282611810947 0
6.79495354622e-05 0.000127337113957 0
-4.86878175603e-05 0.000123873910703 0
-0.000184537675761 -0.00164332484723 0
0.000646862861979 -0.000340156308521 0
0.00141315997781 -0.00488751105107 0
0.00130385629732 -0.00245754718075 0
0.000943740384621 -0.000405562247496 0
0.000303569280733 -0.000858268947589 0
-0.00151960110088 -0.00382106630623 0
-0.0011730051499 -0.000942612652735 0
0.000201387908598 -0.000239280585436 0
0.000520107567316 -0.00383773934864 0
-4.79813454839e-05 -0.0163104974251 0
4.38855210143e-05 -5.61097183977e-05 0
-0.000811880810972 -0.0126453555266 0
7.90437650821e-05 -0.000337803677502 0
0.000406687562012 -0.000249498712694 0
0.000247622148395 -0.00438184332299 0
0.000707716380289 -8.2893260298e-05 0
-0.000473057331227 -0.00055241289063 0
-0.000755465715917 -0.00505949024528 0
0.00118835796615 -0.00459691138305 0
-0.00145711146298 -0.00170744624684 0
0.000109033413536 -0.00208180078396 0
-0.000646172490351 -0.00087271826983 0
0.000190865396045 -2.90522608892e-05 0
-0.000693589408076 -7.95427171837e-05 0
0.00073910979808 -0.00419058483065 0
-0.000974363202744 -0.00171613149599 0
-0.000745506421027 -0.00274513446834 0
0.000489359168778 0.000171354514023 0
-0.000475685936353 0.000177030906814 0
0.000634184771494 -0.00825498493984 0
0.000787013042572 -0.00284620965997 0
0.000488624072932 -0.00139750303928 0
0.00125724902197 -0.00126109685162 0
-0.000711948028691 -0.000156055454171 0
0.000198366964074 -0.000101407131196 0
-0.000534415047036 -0.000272208694863 0
0.000385489696119 -0.015067842484 0
0.000302494565722 -0.00633530524097 0
-7.50117240781e-06 -0.00822832376199 0
0.000457563901601 -0.000513220260632 0
-4.68565092218e-05 -0.00134416417694 0
5.3933842868e-06 0.000126735800788 0
0.000243288801072 -0.00054614094226 0
1.33190353222e-05 0.000123336007972 0
0.000380044600089 -0.00060077843307 0
0.00156976437363 -0.00374175259132 0
0.000226971253008 -0.0184209709372 0
-0.000211699256497 -0.00609906747724 0
-0.000684106665216 -0.000244647839308 0
-0.00131613281396 -0.0029610701516 0
0.00158137088415 -0.00462042095362 0
0.000699108564152 -0.00137649229422 0
0.000724478660727 -0.00100343966101 0
-0.000887363710779 -0.00375601048028 0
0.000517840571429 -0.0116288496976 0
0.000207159599389 -0.000956135634797 0
-3.81459214214e-05 -2.3953721442e-05 0
-0.000971631599865 -0.000636677526053 0
-0.00083141626598 -0.0157300497909 0
-0.000880978598498 -0.000286039281952 0
0.000548003405824 -0.000278258047183 0
5.12516343119e-05 -0.000154416823341 0
2.64725625021e-05 6.6007434673e-05 0
-6.31366119848e-06 5.39223081153e-05 0
0.000966255069381 -0.00659488746052 0
5.49696241936e-05 0.000252415737485 0
-3.55936873372e-05 0.000247224755065 0
-0.00170738330044 -0.00658400902194 0
0.000143335290031 -2.33570727094e-05 0
-0.000538617915557 8.09849051434e-05 0
0.000551944139876 7.75375650793e-05 0
0.00123483945527 -0.000944362965618 0
-0.000758410305972 -0.00282878176748 0
-6.63450007153e-05 -0.00065169026861 0
0.000216493887466 -0.000333141639816 0
0.000623845513571 -0.00903593339269 0
-0.000424019262778 -0.000779154797315 0
0.000524536533052 -0.00484431537027 0
-0.00116475369833 -0.0091118194197 0
-0.00154289398117 -0.00475405433473 0
-0.000494813052091 -0.00333679879086 0
-0.000388553300101 -0.0130187790382 0
-3.02677001517e-05 0.00031128437432 0
4.87651070609e-05 0.000305358656051 0
-0.00122794920155 -0.0015100902645 0
-0.000335486974101 -0.000847592194255 0
-0.000120879416563 0.000100839970508 0
0.00190356297269 -0.00717861063978 0
0.000139024007427 9.7916948944e-05 0
-0.000208394201559 -0.000322978771284 0
0.000584389899727 -0.0139949178593 0
-0.00119555224912 -0.000826180360972 0
-0.00162537483434 -0.00435734171204 0
0.00105734807398 -0.000603785240299 0
-0.000319654065545 -0.00577043462906 0
-2.69856802852e-05 0.000222728511455 0
4.54884146893e-05 0.000217909379564 0
0.000972195946874 -0.000593378963551 0
0.000586940137726 -2.31723771785e-05 0
-0.00058205446251 -2.12451483459e-05 0