# vtk DataFile Version 2.0
Generated with Solid Solver
ASCII
DATASET UNSTRUCTURED_GRID
POINTS 856 float 
0.0 3.5 0.0
1.6 3.5 0.0
1.6 4.0 0.0
0.0 4.0 0.0
0.0695652173912 3.5 0.0
0.139130434782 3.5 0.0
0.208695652174 3.5 0.0
0.278260869565 3.5 0.0
0.347826086956 3.5 0.0
0.417391304347 3.5 0.0
0.486956521738 3.5 0.0
0.556521739129 3.5 0.0
0.62608695652 3.5 0.0
0.695652173911 3.5 0.0
0.765217391302 3.5 0.0
0.834782608694 3.5 0.0
0.904347826085 3.5 0.0
0.973913043477 3.5 0.0
1.04347826087 3.5 0.0
1.11304347826 3.5 0.0
1.18260869565 3.5 0.0
1.25217391304 3.5 0.0
1.32173913043 3.5 0.0
1.39130434783 3.5 0.0
1.46086956522 3.5 0.0
1.53043478261 3.5 0.0
1.6 3.56430812594 0.0
1.6 3.62270835268 0.0
1.6 3.6757434324 0.0
1.6 3.7239062376 0.0
1.6 3.76764438351 0.0
1.6 3.80736436404 0.0
1.6 3.84343531219 0.0
1.6 3.87619247117 0.0
1.6 3.90594026707 0.0
1.6 3.93295517284 0.0
1.6 3.95748825478 0.0
1.6 3.97976750982 0.0
1.58000000587 4.0 0.0
1.55999996633 4.0 0.0
1.54000002214 4.0 0.0
1.51999997198 4.0 0.0
1.50000000455 4.0 0.0
1.48000000216 4.0 0.0
1.45999997931 4.0 0.0
1.44000002484 4.0 0.0
1.41999997044 4.0 0.0
1.40000002096 4.0 0.0
1.37999999963 4.0 0.0
1.35999999626 4.0 0.0
1.34000002179 4.0 0.0
1.31999997343 4.0 0.0
1.3000000318 4.0 0.0
1.27999998783 4.0 0.0
1.26000000202 4.0 0.0
1.24000001295 4.0 0.0
1.21999998074 4.0 0.0
1.20000003685 4.0 0.0
1.17999998163 4.0 0.0
1.16000001473 4.0 0.0
1.14000000469 4.0 0.0
1.11999999139 4.0 0.0
1.10000003625 4.0 0.0
1.07999997877 4.0 0.0
1.06000002802 4.0 0.0
1.04000000338 4.0 0.0
1.02000000764 4.0 0.0
1.00000002986 4.0 0.0
0.979999980237 4.0 0.0
0.960000035522 4.0 0.0
0.939999990881 4.0 0.0
0.920000014619 4.0 0.0
0.900000017903 4.0 0.0
0.879999986222 4.0 0.0
0.860000037278 4.0 0.0
0.839999982352 4.0 0.0
0.820000022783 4.0 0.0
0.800000000002 4.0 0.0
0.779999977222 4.0 0.0
0.760000017652 4.0 0.0
0.739999962726 4.0 0.0
0.720000013782 4.0 0.0
0.699999982101 4.0 0.0
0.679999985385 4.0 0.0
0.660000009123 4.0 0.0
0.639999964482 4.0 0.0
0.620000019766 4.0 0.0
0.599999970141 4.0 0.0
0.57999999236 4.0 0.0
0.559999996622 4.0 0.0
0.539999971983 4.0 0.0
0.520000021235 4.0 0.0
0.499999963756 4.0 0.0
0.480000008612 4.0 0.0
0.459999995315 4.0 0.0
0.439999985272 4.0 0.0
0.420000018371 4.0 0.0
0.39999996315 4.0 0.0
0.380000019261 4.0 0.0
0.359999987052 4.0 0.0
0.339999997986 4.0 0.0
0.320000012172 4.0 0.0
0.299999968206 4.0 0.0
0.280000026575 4.0 0.0
0.259999978213 4.0 0.0
0.240000003742 4.0 0.0
0.220000000371 4.0 0.0
0.199999979041 4.0 0.0
0.180000029557 4.0 0.0
0.159999975162 4.0 0.0
0.140000020694 4.0 0.0
0.119999997846 4.0 0.0
0.0999999954514 4.0 0.0
0.0800000280232 4.0 0.0
0.0599999778571 4.0 0.0
0.0400000336732 4.0 0.0
0.0199999941324 4.0 0.0
0.0 3.97976750982 0.0
0.0 3.95748825478 0.0
0.0 3.93295517284 0.0
0.0 3.90594026707 0.0
0.0 3.87619247117 0.0
0.0 3.84343531219 0.0
0.0 3.80736436404 0.0
0.0 3.76764438351 0.0
0.0 3.7239062376 0.0
0.0 3.6757434324 0.0
0.0 3.62270835268 0.0
0.0 3.56430812594 0.0
0.249757905714 3.75212552678 0.0
1.35000000902 3.74954526597 0.0
0.488714190926 3.75947467509 0.0
0.727445026698 3.75983525744 0.0
0.962900270309 3.76055270856 0.0
1.17161197633 3.81755162829 0.0
0.130754031542 3.86878251069 0.0
1.46924596846 3.86878251069 0.0
0.369913852535 3.84868154079 0.0
0.603236233099 3.84763103091 0.0
0.843402107212 3.84736931152 0.0
1.05041705507 3.86611282467 0.0
0.250539323282 3.87785527135 0.0
1.34882231626 3.87787871523 0.0
0.468661896861 3.89189320321 0.0
0.704258117309 3.89639128976 0.0
0.94963922804 3.89654080835 0.0
1.25000000748 3.89875296068 0.0
1.12879020517 3.91059303421 0.0
0.548928478218 3.91905583534 0.0
0.7889268651 3.91906062813 0.0
0.0712526194949 3.93011432704 0.0
1.52874738051 3.93011432704 0.0
1.4740071133 3.74293106904 0.0
0.125992886699 3.74293106904 0.0
0.329956761073 3.92118145982 0.0
1.09412206522 3.66725831207 0.0
0.190000004299 3.92542384899 0.0
1.41098423528 3.92728100222 0.0
0.629999992124 3.92414139091 0.0
0.87000001175 3.92414140592 0.0
0.853391941071 3.71944243214 0.0
0.610032822379 3.72536074396 0.0
0.41090315692 3.92892991009 0.0
0.370435019193 3.7251305208 0.0
1.01000001875 3.93130199947 0.0
1.22823348571 3.68694249365 0.0
1.18894423177 3.93487447818 0.0
1.31063576122 3.93502724255 0.0
0.129927636183 3.94112156482 0.0
1.47007236382 3.94112156482 0.0
1.07646504896 3.76194504855 0.0
1.07000000339 3.94017719684 0.0
0.270000002394 3.93875928556 0.0
1.26759839792 3.80243333593 0.0
0.770332946246 3.83880063275 0.0
0.530342720064 3.83880306325 0.0
0.189898092614 3.63474333735 0.0
1.4101772205 3.6313147556 0.0
0.942883893479 3.62966700486 0.0
0.510631148905 3.62429064243 0.0
0.754670889573 3.63369080225 0.0
0.489999986184 3.94463854908 0.0
0.732500655853 3.9452729887 0.0
0.193627936713 3.81528931126 0.0
1.40183871842 3.81461096917 0.0
0.928721275957 3.94715071018 0.0
0.0604617896557 3.86281267064 0.0
1.53953821034 3.86281267065 0.0
1.25036152032 3.94913766834 0.0
0.30096552553 3.81141484704 0.0
0.297089357677 3.66359682597 0.0
0.394212311705 3.61316974741 0.0
0.831051681923 3.94633984116 0.0
0.592085081305 3.94901138542 0.0
0.669405291514 3.95495209798 0.0
1.3611855791 3.94637621082 0.0
0.928496698914 3.82436133158 0.0
0.444093171593 3.8271987226 0.0
0.683378885111 3.8234871366 0.0
0.372430737197 3.95235208784 0.0
1.19348789949 3.87019408468 0.0
1.15124363553 3.95467023547 0.0
0.229287653728 3.96038323295 0.0
0.646635519079 3.61231195482 0.0
0.986819459779 3.84973028271 0.0
1.11214815433 3.84770266014 0.0
1.50610225987 3.6604664246 0.0
0.0938977401332 3.6604664246 0.0
0.531976760298 3.96138656711 0.0
0.451361041931 3.96112773652 0.0
0.771976835888 3.96138886125 0.0
1.53311213884 3.79435404356 0.0
0.066887861162 3.79435404356 0.0
0.970836553066 3.9620233382 0.0
0.311702426505 3.96111572975 0.0
1.31698094247 3.6658628839 0.0
1.11177843379 3.95948388532 0.0
1.15003411964 3.72957279566 0.0
0.890058924798 3.96133576813 0.0
0.169108880648 3.96040269401 0.0
1.42850737314 3.96465656678 0.0
0.0426347993992 3.9610175717 0.0
1.5573652006 3.9610175717 0.0
1.28993057938 3.85776473604 0.0
1.34652710411 3.82072629166 0.0
0.897316840472 3.87585124602 0.0
0.814484972147 3.79171515708 0.0
0.573290986674 3.7879873938 0.0
1.02164717476 3.69631051635 0.0
0.41798215839 3.87594988344 0.0
1.18469655214 3.6045863568 0.0
0.657426542805 3.87734841349 0.0
0.0893439701605 3.9657484063 0.0
1.51065602984 3.9657484063 0.0
0.850202761783 3.61862953305 0.0
0.185775988195 3.86980628439 0.0
1.41422401181 3.86980628439 0.0
0.305957202498 3.87340573583 0.0
0.629999992124 3.96272981278 0.0
0.686026569054 3.68766751472 0.0
1.03220081924 3.96436031967 0.0
0.445441337222 3.69456289967 0.0
1.33308537187 3.96770341358 0.0
1.0249206042 3.60512275769 0.0
0.128645746764 3.81165411571 0.0
1.47135425324 3.81165411571 0.0
1.29077706219 3.96625078806 0.0
1.21302440104 3.96491551313 0.0
0.373320303365 3.89968789902 0.0
0.409457647309 3.96502881891 0.0
1.39076199588 3.96614348387 0.0
1.2156032112 3.76624353786 0.0
0.383301616321 3.78976397621 0.0
0.593246012246 3.8948346816 0.0
0.833004203108 3.89475034107 0.0
0.187583903859 3.70688411961 0.0
1.41241609614 3.70688411961 0.0
1.08573330585 3.89673930733 0.0
1.04303343403 3.81530385578 0.0
0.103644791029 3.90516202075 0.0
1.49635520897 3.90516202075 0.0
1.23586605501 3.85112068621 0.0
0.921814270996 3.70213058021 0.0
0.532219762185 3.7029333087 0.0
1.28217045716 3.7375098981 0.0
0.779621693208 3.70806977531 0.0
0.998890529268 3.88397615296 0.0
0.659406618131 3.76469373474 0.0
0.230043799244 3.91599372373 0.0
1.53690667654 3.72637971331 0.0
0.0630933234627 3.72637971331 0.0
0.153148105836 3.90639761309 0.0
1.4478092366 3.90500627713 0.0
0.512139854501 3.90538519137 0.0
0.750930702019 3.90340708 0.0
0.0409150717909 3.90046251393 0.0
1.55908492821 3.90046251393 0.0
0.702096631597 3.96656725638 0.0
0.246204062466 3.82734823738 0.0
0.872012730916 3.80079945556 0.0
0.313419524246 3.75328100976 0.0
1.26305184675 3.57725747237 0.0
1.04341944162 3.90846795586 0.0
0.697725469476 3.93030230037 0.0
0.27003033309 3.96477332623 0.0
0.632456188669 3.80120134001 0.0
0.55988813035 3.96676596088 0.0
0.798125231733 3.9668778541 0.0
0.861599835739 3.96514225679 0.0
0.130196681328 3.96566148827 0.0
1.46980331867 3.96566148827 0.0
0.337465698618 3.96873835045 0.0
1.10690030388 3.57445060302 0.0
1.07038768144 3.96631210642 0.0
0.201908835349 3.96783542832 0.0
1.17640357301 3.96795841043 0.0
0.482502283815 3.8454083814 0.0
1.37723451734 3.90442225885 0.0
0.722497886517 3.84543272537 0.0
0.254749007352 3.57960328731 0.0
0.449206209982 3.91785378051 0.0
0.907803563184 3.91575967116 0.0
0.997592319531 3.96832081731 0.0
1.3597087328 3.59165409162 0.0
0.797785363131 3.87112617582 0.0
0.557788209884 3.87112741711 0.0
0.133223775006 3.57024633267 0.0
1.46673023696 3.57019175074 0.0
0.296361477075 3.90524448543 0.0
1.29555045611 3.90092076583 0.0
1.11951450862 3.79592056714 0.0
0.341558640376 3.57546927501 0.0
0.974255514016 3.92370320024 0.0
0.664786082443 3.91707165091 0.0
1.1442561544 3.86460464827 0.0
0.430695849932 3.74774845865 0.0
1.22439218721 3.92431164104 0.0
0.917330800791 3.76752811157 0.0
0.0995806821614 3.83759752714 0.0
1.50041931784 3.83759752714 0.0
0.586492545959 3.6571718064 0.0
1.16809690663 3.90376349956 0.0
0.490525946651 3.9687439861 0.0
0.170108846494 3.77025381333 0.0
0.726723612771 3.96611364881 0.0
1.42998397347 3.77014833166 0.0
1.55978981314 3.82099569701 0.0
0.0402101868575 3.82099569701 0.0
1.10043652243 3.92805072974 0.0
1.34111814411 3.91924529479 0.0
1.27430066613 3.93505265881 0.0
0.56431092584 3.57086686051 0.0
0.930516510487 3.96969091611 0.0
1.17713743504 3.67180033503 0.0
0.801256410508 3.5635758738 0.0
1.37979186382 3.84566323689 0.0
1.02277822921 3.7577258162 0.0
0.252009847995 3.68167957306 0.0
0.0497138210057 3.58866012032 0.0
1.55028617899 3.58866012032 0.0
0.466046622144 3.57331739513 0.0
0.343019074867 3.81481221655 0.0
0.0645235269233 3.96909610548 0.0
1.53547647308 3.96909610548 0.0
0.0310141903995 3.92955737583 0.0
[...]
POINT_DATA 856
VECTORS Displacement float
0.0 0.0 0
0.0 0.0 0
-6.07526316212e-05 0.000306081939704 0
8.41339935576e-05 0.000314004352437 0
0.0 0.0 0
0.0 0.0 0
0.0 0.0 0
0.0 0.0 0
0.0 0.0 0
0.0 0.0 0
0.0 0.0 0
0.0 0.0 0
0.0 0.0 0
0.0 0.0 0
0.0 0.0 0
0.0 0.0 0
0.0 0.0 0
0.0 0.0 0
0.0 0.0 0
0.0 0.0 0
0.0 0.0 0
0.0 0.0 0
0.0 0.0 0
0.0 0.0 0
0.0 0.0 0
0.0 0.0 0
0.000218821807316 -9.80524732976e-05 0
0.000370287862003 -7.30536021429e-05 0
0.000454559419092 -4.06689426168e-06 0
0.00046489845381 7.90906764463e-05 0
0.000431939765597 0.00015180445408 0
0.00037107581207 0.000211496254467 0
0.000295216738645 0.000253793713771 0
0.000220078684416 0.000281701636957 0
0.000147758967885 0.00029775424918 0
8.31339522439e-05 0.000304041175598 0
2.77963733564e-05 0.000306290346957 0
-1.94777425719e-05 0.000306324355335 0
-6.05123030516e-05 0.000265393306142 0
-6.02292930817e-05 0.000226355168919 0
-6.1260713128e-05 0.000189624970721 0
-6.44612145615e-05 0.000155244523591 0
-7.07946602557e-05 0.000122813962765 0
-8.10576998546e-05 9.05809092618e-05 0
-9.58288552071e-05 5.95446235953e-05 0
-0.000115470228662 2.59678133072e-05 0
-0.000140836846184 -8.96781185986e-06 0
-0.000170788861439 -4.88508018995e-05 0
-0.000207335630772 -9.18697658573e-05 0
-0.000249561073777 -0.000142913672581 0
-0.000299519017847 -0.000200945947993 0
-0.000355518762357 -0.000268859530695 0
-0.000416413668331 -0.000347672113477 0
-0.000486958105327 -0.000438041569023 0
-0.000562116689865 -0.000542099134629 0
-0.000642711282453 -0.000664118502156 0
-0.000732480557231 -0.000805176561899 0
-0.00083301261077 -0.000965013077155 0
-0.000936963112162 -0.00115217487441 0
-0.00105336679928 -0.00136627286121 0
-0.00117045104911 -0.00161231198169 0
-0.00129330468317 -0.00189695068349 0
-0.00142894916312 -0.00221594015425 0
-0.00156611338139 -0.00258461715466 0
-0.00171965236822 -0.00300776510675 0
-0.00186958837039 -0.00349550740032 0
-0.00203701437899 -0.0040664965171 0
-0.00219179799411 -0.00472998711676 0
-0.00236045979254 -0.0055023627852 0
-0.00253891454596 -0.00645601869423 0
-0.00267363896999 -0.00761997756363 0
-0.00279250637261 -0.00918812263049 0
-0.00259482601392 -0.0115716958138 0
-0.00218674537646 -0.013873823177 0
-0.00169059694469 -0.0156467011953 0
-0.00111478638192 -0.0169018909248 0
-0.000522532353264 -0.0176510555097 0
6.61905850625e-05 -0.0178975168179 0
0.000622502998203 -0.0176545665286 0
0.00121621594714 -0.0169078736376 0
0.00174205268879 -0.0156505317796 0
0.00228593459707 -0.0138847507419 0
0.00267181297511 -0.0115822077529 0
0.00283208131312 -0.0091697703311 0
0.00272041781348 -0.00761550497862 0
0.00255149598583 -0.00643775795039 0
0.00240116607346 -0.00550243423929 0
0.00222307980224 -0.00471760538964 0
0.0020585248429 -0.00405406099722 0
0.00189821433029 -0.00349084191084 0
0.00174823469552 -0.003004976143 0
0.00159756082551 -0.00257830729021 0
0.00145908427553 -0.00220664594043 0
0.00131840907275 -0.00188477481178 0
0.00119225597965 -0.00160453555925 0
0.00107101949748 -0.00136282502407 0
0.000962306654142 -0.00114849027837 0
0.000856116636173 -0.000962683355783 0
0.000755503755631 -0.000801960466319 0
0.000666452736734 -0.000661196226889 0
0.000583059609343 -0.000541067256426 0
0.000507764550093 -0.000435482934331 0
0.000437959100238 -0.000345506969101 0
0.000377214098985 -0.00026661378376 0
0.000321407056468 -0.000199891690996 0
0.000273416992629 -0.000140665237368 0
0.000230767997855 -9.00116300159e-05 0
0.000193645571862 -4.61691472806e-05 0
0.000163865551024 -6.10844519856e-06 0
0.000138677035831 2.90666593714e-05 0
0.000119125091832 6.33907566142e-05 0
0.000104297080719 9.50362026967e-05 0
9.40888029571e-05 0.000127761325299 0
8.77968358556e-05 0.000160766835554 0
8.46233213402e-05 0.00019574339258 0
8.36042401642e-05 0.000233077130475 0
8.38923674666e-05 0.000272717824108 0
4.22561913642e-05 0.000314248104507 0
-5.67755042454e-06 0.000314220928525 0
-6.17391997513e-05 0.000311987980029 0
-0.000127171455978 0.000305735615116 0
-0.000200415520017 0.000289752911788 0
-0.000276683086528 0.000261936962275 0
-0.000353891384683 0.000219724016734 0
-0.000416545243506 0.000160088017821 0
-0.000451791750005 8.7190041813e-05 0
-0.000444230017387 3.34060605455e-06 0
-0.000362930554915 -6.69864506615e-05 0
-0.000214493026095 -9.40063214372e-05 0
-0.000639221564505 -0.000147767266617 0
0.00065951026332 -0.000148782502474 0
-0.00120674012136 -0.00164057503418 0
-0.000792816904111 -0.00559386878532 0
0.0013530061757 -0.00408439512786 0
0.000806132722723 -0.00111445812851 0
-0.000236889267085 8.27252310001e-05 0
0.000256127052366 7.8531953003e-05 0
-0.000464931530567 -0.00064336864307 0
-0.00117116857323 -0.00433768381896 0
0.000652055497828 -0.00897173454391 0
0.000801165736405 -0.00304428219093 0
-0.000215380329601 -0.000126211573086 0
0.000235802241596 -0.000130700061346 0
-0.000240779719929 -0.00161633179976 0
-0.00101674188314 -0.00902160433471 0
0.00094199073023 -0.00651245192756 0
0.000122360148478 -0.000529533717408 0
3.95274604342e-05 -0.00166702439098 0
-6.14159989934e-06 -0.00310466814839 0
-0.000124134672276 -0.012911392298 0
-6.84181950051e-05 0.000175610230498 0
8.97142044576e-05 0.000169824146466 0
0.000520236312017 3.14919070167e-05 0
-0.000505868418941 3.51165895401e-05 0
4.905016373e-05 -0.000424978435619 0
0.00119883239483 -0.00131165826831 0
-3.90150111053e-05 -5.15396245464e-07 0
5.50319187115e-05 -1.57782618718e-06 0
-0.000287343454323 -0.00577720424374 0
0.00073701478443 -0.0113118367059 0
0.00055606680577 -0.00468295093815 0
-0.00132418628393 -0.00306660753808 0
0.000188490069235 -0.000983360476789 0
-0.000937868764627 -0.000586967452431 0
-7.52148740321e-05 -0.00427972987892 0
0.00095587459112 -0.000539384376527 0
-0.000225773012558 -0.000993817744599 0
-6.71960929228e-05 -0.000259150427971 0
-2.25976486392e-05 8.93951632949e-05 0
4.4171648106e-05 8.54951449376e-05 0
0.00130866908026 -0.00212000359747 0
-0.000395106307375 -0.00269646509071 0
8.59925107247e-05 -0.000191820337739 0
0.000661490523875 -0.000432060300289 0
-0.000416665950893 -0.00879674427011 0
-0.000957651667971 -0.00256379654308 0
-0.000517093221919 -5.89952572801e-05 0
0.000520944784284 -6.19927245792e-05 0
0.000838995704008 -0.00206879947757 0
-0.00101955534998 -0.00101946424911 0
-0.000317599984275 -0.00263148247699 0
0.000478082165643 -0.00195652750168 0
-0.000377145144987 -0.0123577574287 0
-0.00041895340628 -1.88376841262e-05 0
0.000444043568009 -2.99703251028e-05 0
7.65312278475e-05 -0.00815100704464 0
-0.000244377384607 0.000171214951438 0
0.000263637262498 0.0001651461431 0
-0.000250639113264 -0.000547284396169 0
-0.000552019794421 -0.000296308031779 0
-0.000753091840089 -0.000248019321354 0
-0.000812549760383 -0.000454048215599 0
0.00026244784298 -0.0141327486591 0
0.000547052217298 -0.00435453506129 0
0.000242521102979 -0.00810397459864 0
-6.07065178094e-05 -0.000110366841695 0
0.00133007434707 -0.00605834788461 0
-0.000770093247097 -0.00127273712827 0
-0.00123717544211 -0.00638102829018 0
0.000345950421738 -0.000691584583029 0
0.000382112272973 -0.000933314887441 0
-0.000521707617536 -0.00140406466755 0
0.000124012077072 -8.98703960471e-05 0
-0.00080493089658 -0.00170560572276 0
0.00121804468806 -0.00466116616014 0
0.000757785551456 -0.00186411739774 0
0.000479696279736 1.11980046915e-05 0
-0.000470870036064 1.49271994899e-05 0
0.00085592934544 -0.00274745989361 0
0.000639621430135 -0.00143269086805 0
-1.59839665938e-05 -0.0151570514942 0
0.000420443811268 0.000114667028697 0
-0.000403737618461 0.000120379852697 0
-0.00080041342307 -0.00582622172836 0
0.000274342429169 -0.000359454717916 0
0.000736452280563 -0.000218461011408 0
-0.000690620695975 -0.00195032145524 0
0.00116316309306 -0.00114494636752 0
2.27631350981e-06 -0.0114183455208 0
5.56711649675e-05 2.71711608656e-05 0
-4.7166702848e-05 1.91550398061e-05 0
2.97418221918e-06 0.000227766461688 0
1.92474545427e-05 0.000221120406549 0
0.000364179368286 -0.000327977392003 0
0.0004749327143 -0.000142553754195 0
0.00113412044628 -0.00837534428325 0
0.000202345507238 -0.00715228670479 0
-0.0013485397945 -0.00313155334154 0
0.00131553479913 -0.00229976249458 0
-0.000327630659993 -0.00103088225575 0
0.000804882382294 -0.000488828563515 0
-0.00112124049762 -0.006549618098 0
2.22204617586e-05 0.000148124072733 0
1.48988249871e-07 0.00014288603885 0
0.000333174605686 -0.00226689441722 0
-0.000239797617602 6.44152908796e-06 0
0.000258768727054 4.39655163719e-06 0
-0.00025355675693 -0.000308236392097 0
0.000867497582953 -0.00587425800103 0
-0.000923727125252 -0.00339236482772 0
-0.000953908668798 -0.00363182355015 0
-0.0011381187896 -0.000989088969345 0
-0.000192984892805 -0.00019844641282 0
0.000916616307025 -0.00120697776984 0
-0.000391553586686 6.64668679208e-05 0
0.000409442005908 6.22000940515e-05 0
-0.000274043503512 -0.000355351470285 0
-0.000468285586508 -0.000811464786615 0
-9.2201584551e-05 -0.000674389569374 0
0.000559205654227 -0.00099656139452 0
-9.41708959182e-05 -5.06695080074e-05 0
0.000914499461242 -0.000712139606041 0
-0.000805909971214 -0.000719980034278 0
-0.000602347061717 -0.00429428532229 0
0.000502762471627 -0.011279723101 0
-0.000586730098661 -4.53823361685e-05 0
0.000598213477271 -4.62968374949e-05 0
0.000301472268685 -0.00236252248025 0
0.00122254093157 -0.00300466993943 0
-0.000131504326867 0.000125352033163 0
0.000152027039423 0.000120495355534 0
0.000461249924235 -0.000611441461544 0
0.0010180294673 -0.0036246937748 0
-0.00129590494783 -0.00182090910201 0
0.000811181115448 -0.000357807881791 0
-0.000207260466262 -0.00453561871934 0
0.000843342199644 -0.00451221790906 0
-0.00127306262276 -0.00457622799289 0
-5.25676440149e-05 -7.90991301438e-05 0
0.000494674747307 6.27408952742e-05 0
-0.000481565895979 6.81666316719e-05 0
-0.000117827085009 5.74677001301e-05 0
0.000143821975374 5.49583930175e-05 0
-0.000146337252908 -0.00231874103587 0
-0.000650144526165 -0.0112542091073 0
-0.000144791257121 0.000218465165434 0
0.000165219355569 0.000211768605718 0
0.000327903132976 -0.0108620233797 0
-0.000423768489761 -0.000122689645849 0
0.000890391305393 -0.00680461347398 0
-0.000757083912971 -0.000345849276382 0
0.000545443396651 -0.000215088164733 0
0.000251714794233 -0.00329256155915 0
-0.000635421392211 -0.00961534342317 0
0.00020784209755 -0.000205200876126 0
-0.00136734215049 -0.00461387747593 0
0.00103533500707 -0.0034158473234 0
5.02947670751e-05 -0.0159207899131 0
-2.14407882174e-05 -0.0137283281495 0
4.03775383088e-05 8.60213723488e-05 0
-1.79545538574e-05 8.18618269281e-05 0
0.000382739496215 -0.000491947851744 0
0.000702420641306 -0.000578400594872 0
-0.000924141981206 -0.0027138230692 0
0.000112278655416 -3.45395739391e-05 0
-0.000611395731715 -0.00113850730702 0
-0.000743284889321 -0.00177386218128 0
0.00012536267789 -6.42706659943e-05 0
-0.000997118750294 -0.00808292943854 0
-0.000432749249587 -0.000109092282572 0
8.43872600198e-05 -0.00137805523134 0
0.000876517186314 -0.00893961023975 0
-0.00108870763579 -0.00473923209304 0
0.0004680663036 -0.00010672019988 0
-2.07384800417e-05 -0.0104232730494 0
-0.000756180174945 -0.00324202878055 0
-0.000280943763667 -1.83767419086e-05 0
0.000285666953113 -1.97450352592e-05 0
-7.0945098375e-05 -0.000274715083531 0
0.00011512744509 -0.000306229440685 0
0.00107804127972 -0.00166453194318 0
-0.000537361297983 -0.000218830526563 0
0.000307112223135 -0.00560936056131 0
-0.000700803551435 -0.0074322116225 0
0.000520645630377 -0.0014442763973 0
-0.00106463382797 -0.00102725877855 0
-8.98078077082e-05 -0.000700602692095 0
0.00117437710707 -0.00509084468646 0
-0.000317158491163 0.000109481238311 0
0.00033543393021 0.000104639762604 0
-0.0011397513382 -0.00190589068359 0
9.42473811196e-05 -0.00118463514188 0
0.000876467482039 -0.00198901503439 0
-0.000505923052175 -1.79452050504e-07 0
0.000142080607116 -0.0129453306135 0
0.000521916879738 -3.54192112484e-06 0
0.000356943014287 0.000165307031969 0
-0.000339225940323 0.000171991953064 0
-0.000193432601691 -0.00210616817864 0
4.13145488959e-05 -0.000155749536293 0
-0.000113913662301 -0.00041118968131 0
-0.000684299069803 -0.000769190073323 0
-0.000805998596071 -0.00818839752848 0
0.00106562556774 -0.000770127782962 0
2.90684760488e-06 -0.00114785318879 0
0.000356280382277 -6.16756493344e-05 0
0.00140192730712 -0.00295013299204 0
-0.000678386223334 -0.00015336767902 0
-0.000292668843504 -2.02171359166e-05 0
0.000297833975746 -2.32637342943e-05 0
-0.000686860633477 -0.000482990376663 0
-0.00060962035356 -0.000481545321521 0
2.3531198666e-05 0.00018877680896 0
-1.07225761614e-06 0.000182793248962 0
-7.11526797877e-05 0.00024546292515 0
9.24475477468e-05 0.000238456730947 0
-0.000409580231158 -0.00121256941961 0
-0.000225948705153 -0.000437478067048 0
-0.000898348553617 -0.000460510609542 0
-0.0012463746954 -0.00224831301545 0
-0.000428671776767 -0.00677260819563 0
0.000401444526941 -0.00125333340482 0
0.000656327411737 -0.000255961148105 0
-0.000323934537662 3.83262106697e-05 0
-0.000440544529242 -0.000568300324033 0
0.000342547883997 3.94725440633e-05 0
0.000775335818459 -0.000711492999106 0
0.001282907951 -0.00595578610572 0
-0.000922240753137 -0.00172498111583 0
0.000113962647905 -0.00896921674132 0
-0.0011133979647 -0.00332046094979 0
-0.00016845391352 -0.000136960173678 0
-4.96617163708e-05 0.00013247467138 0
7.11048715264e-05 0.000127549339449 0
0.00125743247163 -0.00487836311987 0
0.00114213833924 -0.00713968877543 0
0.00101515243956 -0.00248995135871 0
-0.000134721240265 0.000169080193554 0
0.000155251098594 0.000163352466787 0
-0.000530001327183 9.32483643103e-06 0
0.000541360442972 6.07111332033e-06 0
-0.000325815456728 -0.016375318324 0
0.000898724877113 -0.0101184806522 0
0.000562252249118 -0.00081663012649 0
2.70393729598e-05 0.000258571479969 0
-4.47910479196e-06 0.000251452363361 0
0.00138555204726 -0.00465693426566 0
-0.000863455352651 -0.00543659887373 0
-0.000290541699882 -0.000286277631581 0
-0.000259586060322 -5.38647046872e-05 0
0.0012897963458 -0.00158883473633 0
-3.25070284321e-05 5.37822442695e-05 0
5.19311669399e-05 -0.000902372850156 0
6.14933715171e-05 4.70483448236e-05 0
0.000762599686239 -0.00120849773249 0
0.00112615986223 -0.00751191574509 0
-0.000357876963663 -0.00166980457935 0
-0.00131294268966 -0.00557329612886 0
0.000597661728178 -0.000951149114445 0
-0.000600936155139 -0.000922147583936 0
-0.000130134176831 -2.72942668524e-05 0
0.00067611633613 -0.000129408929694 0
-0.00010654691256 -1.87108387844e-05 0
-0.000610317125543 -0.00224386653234 0
-0.000720988558433 -0.0096822043166 0
-0.001029068221 -0.00167370359425 0
0.000228936606824 -0.000156352159214 0
1.85184149067e-05 -0.00380144479479 0
0.000215882939717 -0.0131934242996 0
-0.000950955439337 -0.00673675479193 0
0.00013576426805 -0.000568897744349 0
0.0007949141302 -0.00897089686364 0
-0.00118262392049 -0.00757145213166 0
-0.000214777030473 0.000215624048476 0
0.000234354344424 0.000208748618762 0
-0.000293820272288 -0.00337085589502 0
0.00125349910775 -0.00313632093384 0
0.000320639766686 -5.02676701312e-05 0
-0.000390969671936 -0.000448434274909 0
0.000314729108327 -0.000282171452583 0
-0.000516703923767 -8.44192695534e-05 0
-6.95594144901e-05 -0.000142145284113 0
-0.00136509291049 -0.00240428912014 0
-0.00050598535478 -0.00138109433317 0
-0.000339753370571 -0.000191658744391 0
-0.000299320859788 -4.68656758415e-05 0
0.000974470031446 -0.00171211650217 0
0.00115211075805 -0.00233659036736 0
0.00051845729678 -0.0152044537953 0
0.000394424985477 -0.00183935278227 0
-0.000229177333702 0.000129928369246 0
0.00024876530597 0.000124835019144 0
0.000478526308696 2.9023033395e-05 0
-0.000468165950747 3.42260901443e-05 0
0.000544250807129 -9.03201721302e-05 0
-5.08751407875e-05 -0.00576503586143 0
-0.00150140971986 -0.00696248018806 0
8.55997715632e-05 5.42883666783e-05 0
-6.4471499785e-05 4.92081944539e-05 0
-0.000841270021365 -0.000383980892994 0
0.000492816293266 -0.000639707351949 0
-0.00113775165301 -0.0099125719288 0
-2.11775498059e-05 -5.41965889544e-05 0
0.000305222570836 -0.0023868605984 0
-0.000493127501183 -0.012479671001 0
-0.001097546976 -0.0023421662038 0
6.1112663216e-05 0.000114101723043 0
-3.83835619435e-05 0.000109459789529 0
-0.000163202423464 -0.00135856237718 0
0.000544715439275 -0.000275478615643 0
0.00123540367761 -0.00403799579503 0
0.0011234891054 -0.00208723580441 0
0.000799582510865 -0.00033640290302 0
0.000252688572599 -0.000705339346403 0
-0.00129857734383 -0.00316591325872 0
-0.000997321020071 -0.000789641262128 0
0.000169292460553 -0.000190858334334 0
0.000474269037692 -0.0031746147154 0
-5.34612109999e-05 -0.0143767714789 0
4.18886949191e-05 -3.79410830137e-05 0
-0.000771453571162 -0.0108283398253 0
7.32629739419e-05 -0.000271172057167 0
0.00034206502053 -0.000199550573456 0
0.000217194764178 -0.0037620408358 0
0.000596610657285 -6.36276415772e-05 0
-0.000397400227187 -0.000451400364864 0
-0.000658113938767 -0.00433727102785 0
0.00100228273797 -0.00383599673967 0
-0.00123765067724 -0.00142850650918 0
0.000110917552865 -0.00172025499778 0
-0.000544469068652 -0.000717810491958 0
0.00016136671901 -1.69088379955e-05 0
-0.000580184070334 -5.95831339298e-05 0
0.000644513334896 -0.0035912938374 0
-0.000825150547104 -0.00141973107784 0
-0.000644944188865 -0.00234763855268 0
0.000412144115666 0.000147592474731 0
-0.000395654941247 0.000154558695768 0
0.000513339451441 -0.00685468288973 0
0.000655356745238 -0.00236410385036 0
0.000424466123679 -0.00115174655987 0
0.00106492955199 -0.00104796731039 0
-0.000598783586663 -0.000126843266217 0
0.000171184349106 -7.56886908258e-05 0
-0.000453305087154 -0.000227512152684 0
0.000418186166111 -0.0130831378281 0
0.000321009787351 -0.00522264000657 0
6.56358535951e-05 -0.0067754222895 0
0.00039103599315 -0.000417302175778 0
-2.60279229347e-05 -0.00110719362721 0
8.80056373837e-06 0.000113612409398 0
0.000212359274316 -0.000444173800787 0
1.33368248537e-05 0.000109037403836 0
0.000318341763064 -0.00049127173289 0
0.00134877801741 -0.00309605836498 0
0.000210801960852 -0.0163613330289 0
-0.000230056640895 -0.00503970801748 0
-0.00057126574153 -0.000195354445219 0
-0.00113371461145 -0.0025161046502 0
0.0013556424573 -0.00388495644865 0
0.000585714582657 -0.00113816521828 0
0.000608573867915 -0.00082742332346 0
-0.000771481346131 -0.00311176406552 0
0.000470770726468 -0.00974370613991 0
0.000185058002998 -0.000784607060095 0
-3.03617650862e-05 -1.27955797485e-05 0
-0.000815257026561 -0.00052254033253 0
-0.000733864360171 -0.0134498258542 0
-0.000739726228444 -0.00023211307784 0
0.000465779919577 -0.000233083953719 0
4.87194126572e-05 -0.000119253808975 0
2.66371520867e-05 6.3157197354e-05 0
-3.33792419043e-06 5.15883671082e-05 0
0.000851070836599 -0.00565544742971 0
5.01693851585e-05 0.000218583503731 0
-2.73086341521e-05 0.000212095664459 0
-0.00149635095988 -0.00542316092652 0
0.000124711401276 -1.10257677966e-05 0
-0.000448878837854 7.40102572291e-05 0
0.000464909487818 6.95316192356e-05 0
0.0010466083891 -0.000784627686848 0
-0.000654196753267 -0.00234402937208 0
-5.77398797759e-05 -0.000533375216873 0
0.00018830071309 -0.000267495716393 0
0.000561610251514 -0.00778744458033 0
-0.000365608924895 -0.000664452065401 0
0.000419091666958 -0.00402113216439 0
-0.0010171542136 -0.00766647302986 0
-0.00131568745954 -0.00399104183517 0
-0.000393690753051 -0.00276532039072 0
-0.00037120095557 -0.0113284056511 0
-2.12124935414e-05 0.000267857937765 0
4.31306179649e-05 0.000260572689248 0
-0.0010333947158 -0.00125287016598 0
-0.000284629066335 -0.000696497678777 0
-9.69513108572e-05 9.20455614074e-05 0
0.00168138035588 -0.00589194847981 0
0.000118365150725 8.79678710562e-05 0
-0.000174684337924 -0.000260518128286 0
0.000582388746334 -0.0121622703975 0
-0.00101048035471 -0.000686155774507 0
-0.00139715062678 -0.00368080836311 0
0.000897542232812 -0.000503285058234 0
-0.00022375885903 -0.0047744927336 0
-1.84347529929e-05 0.000193722401876 0
4.03603216585e-05 0.000187639801058 0
0.000820921715384 -0.000488164277337 0
0.000494617754748 -1.66925479732e-05 0