# vtk DataFile Version 2.0
Generated with Solid Solver
ASCII
DATASET UNSTRUCTURED_GRID
POINTS 856 float 
0.0 3.5 0.0
1.6 3.5 0.0
1.6 4.0 0.0
0.0 4.0 0.0
0.0695652173912 3.5 0.0
0.139130434782 3.5 0.0
0.208695652174 3.5 0.0
0.278260869565 3.5 0.0
0.347826086956 3.5 0.0
0.417391304347 3.5 0.0
0.486956521738 3.5 0.0
0.556521739129 3.5 0.0
0.62608695652 3.5 0.0
0.695652173911 3.5 0.0
0.765217391302 3.5 0.0
0.834782608694 3.5 0.0
0.904347826085 3.5 0.0
0.973913043477 3.5 0.0
1.04347826087 3.5 0.0
1.11304347826 3.5 0.0
1.18260869565 3.5 0.0
1.25217391304 3.5 0.0
1.32173913043 3.5 0.0
1.39130434783 3.5 0.0
1.46086956522 3.5 0.0
1.53043478261 3.5 0.0
1.6 3.56430812594 0.0
1.6 3.62270835268 0.0
1.6 3.6757434324 0.0
1.6 3.7239062376 0.0
1.6 3.76764438351 0.0
1.6 3.80736436404 0.0
1.6 3.84343531219 0.0
1.6 3.87619247117 0.0
1.6 3.90594026707 0.0
1.6 3.93295517284 0.0
1.6 3.95748825478 0.0
1.6 3.97976750982 0.0
1.58000000587 4.0 0.0
1.55999996633 4.0 0.0
1.54000002214 4.0 0.0
1.51999997198 4.0 0.0
1.50000000455 4.0 0.0
1.48000000216 4.0 0.0
1.45999997931 4.0 0.0
1.44000002484 4.0 0.0
1.41999997044 4.0 0.0
1.40000002096 4.0 0.0
1.37999999963 4.0 0.0
1.35999999626 4.0 0.0
1.34000002179 4.0 0.0
1.31999997343 4.0 0.0
1.3000000318 4.0 0.0
1.27999998783 4.0 0.0
1.26000000202 4.0 0.0
1.24000001295 4.0 0.0
1.21999998074 4.0 0.0
1.20000003685 4.0 0.0
1.17999998163 4.0 0.0
1.16000001473 4.0 0.0
1.14000000469 4.0 0.0
1.11999999139 4.0 0.0
1.10000003625 4.0 0.0
1.07999997877 4.0 0.0
1.06000002802 4.0 0.0
1.04000000338 4.0 0.0
1.02000000764 4.0 0.0
1.00000002986 4.0 0.0
0.979999980237 4.0 0.0
0.960000035522 4.0 0.0
0.939999990881 4.0 0.0
0.920000014619 4.0 0.0
0.900000017903 4.0 0.0
0.879999986222 4.0 0.0
0.860000037278 4.0 0.0
0.839999982352 4.0 0.0
0.820000022783 4.0 0.0
0.800000000002 4.0 0.0
0.779999977222 4.0 0.0
0.760000017652 4.0 0.0
0.739999962726 4.0 0.0
0.720000013782 4.0 0.0
0.699999982101 4.0 0.0
0.679999985385 4.0 0.0
0.660000009123 4.0 0.0
0.639999964482 4.0 0.0
0.620000019766 4.0 0.0
0.599999970141 4.0 0.0
0.57999999236 4.0 0.0
0.559999996622 4.0 0.0
0.539999971983 4.0 0.0
0.520000021235 4.0 0.0
0.499999963756 4.0 0.0
0.480000008612 4.0 0.0
0.459999995315 4.0 0.0
0.439999985272 4.0 0.0
0.420000018371 4.0 0.0
0.39999996315 4.0 0.0
0.380000019261 4.0 0.0
0.359999987052 4.0 0.0
0.339999997986 4.0 0.0
0.320000012172 4.0 0.0
0.299999968206 4.0 0.0
0.280000026575 4.0 0.0
0.259999978213 4.0 0.0
0.240000003742 4.0 0.0
0.220000000371 4.0 0.0
0.199999979041 4.0 0.0
0.180000029557 4.0 0.0
0.159999975162 4.0 0.0
0.140000020694 4.0 0.0
0.119999997846 4.0 0.0
0.0999999954514 4.0 0.0
0.0800000280232 4.0 0.0
0.0599999778571 4.0 0.0
0.0400000336732 4.0 0.0
0.0199999941324 4.0 0.0
0.0 3.97976750982 0.0
0.0 3.95748825478 0.0
0.0 3.93295517284 0.0
0.0 3.90594026707 0.0
0.0 3.87619247117 0.0
0.0 3.84343531219 0.0
0.0 3.80736436404 0.0
0.0 3.76764438351 0.0
0.0 3.7239062376 0.0
0.0 3.6757434324 0.0
0.0 3.62270835268 0.0
0.0 3.56430812594 0.0
0.249757905714 3.75212552678 0.0
1.35000000902 3.74954526597 0.0
0.488714190926 3.75947467509 0.0
0.727445026698 3.75983525744 0.0
0.962900270309 3.76055270856 0.0
1.17161197633 3.81755162829 0.0
0.130754031542 3.86878251069 0.0
1.46924596846 3.86878251069 0.0
0.369913852535 3.84868154079 0.0
0.603236233099 3.84763103091 0.0
0.843402107212 3.84736931152 0.0
1.05041705507 3.86611282467 0.0
0.250539323282 3.87785527135 0.0
1.34882231626 3.87787871523 0.0
0.468661896861 3.89189320321 0.0
0.704258117309 3.89639128976 0.0
0.94963922804 3.89654080835 0.0
1.25000000748 3.89875296068 0.0
1.12879020517 3.91059303421 0.0
0.548928478218 3.91905583534 0.0
0.7889268651 3.91906062813 0.0
0.0712526194949 3.93011432704 0.0
1.52874738051 3.93011432704 0.0
1.4740071133 3.74293106904 0.0
0.125992886699 3.74293106904 0.0
0.329956761073 3.92118145982 0.0
1.09412206522 3.66725831207 0.0
0.190000004299 3.92542384899 0.0
1.41098423528 3.92728100222 0.0
0.629999992124 3.92414139091 0.0
0.87000001175 3.92414140592 0.0
0.853391941071 3.71944243214 0.0
0.610032822379 3.72536074396 0.0
0.41090315692 3.92892991009 0.0
0.370435019193 3.7251305208 0.0
1.01000001875 3.93130199947 0.0
1.22823348571 3.68694249365 0.0
1.18894423177 3.93487447818 0.0
1.31063576122 3.93502724255 0.0
0.129927636183 3.94112156482 0.0
1.47007236382 3.94112156482 0.0
1.07646504896 3.76194504855 0.0
1.07000000339 3.94017719684 0.0
0.270000002394 3.93875928556 0.0
1.26759839792 3.80243333593 0.0
0.770332946246 3.83880063275 0.0
0.530342720064 3.83880306325 0.0
0.189898092614 3.63474333735 0.0
1.4101772205 3.6313147556 0.0
0.942883893479 3.62966700486 0.0
0.510631148905 3.62429064243 0.0
0.754670889573 3.63369080225 0.0
0.489999986184 3.94463854908 0.0
0.732500655853 3.9452729887 0.0
0.193627936713 3.81528931126 0.0
1.40183871842 3.81461096917 0.0
0.928721275957 3.94715071018 0.0
0.0604617896557 3.86281267064 0.0
1.53953821034 3.86281267065 0.0
1.25036152032 3.94913766834 0.0
0.30096552553 3.81141484704 0.0
0.297089357677 3.66359682597 0.0
0.394212311705 3.61316974741 0.0
0.831051681923 3.94633984116 0.0
0.592085081305 3.94901138542 0.0
0.669405291514 3.95495209798 0.0
1.3611855791 3.94637621082 0.0
0.928496698914 3.82436133158 0.0
0.444093171593 3.8271987226 0.0
0.683378885111 3.8234871366 0.0
0.372430737197 3.95235208784 0.0
1.19348789949 3.87019408468 0.0
1.15124363553 3.95467023547 0.0
0.229287653728 3.96038323295 0.0
0.646635519079 3.61231195482 0.0
0.986819459779 3.84973028271 0.0
1.11214815433 3.84770266014 0.0
1.50610225987 3.6604664246 0.0
0.0938977401332 3.6604664246 0.0
0.531976760298 3.96138656711 0.0
0.451361041931 3.96112773652 0.0
0.771976835888 3.96138886125 0.0
1.53311213884 3.79435404356 0.0
0.066887861162 3.79435404356 0.0
0.970836553066 3.9620233382 0.0
0.311702426505 3.96111572975 0.0
1.31698094247 3.6658628839 0.0
1.11177843379 3.95948388532 0.0
1.15003411964 3.72957279566 0.0
0.890058924798 3.96133576813 0.0
0.169108880648 3.96040269401 0.0
1.42850737314 3.96465656678 0.0
0.0426347993992 3.9610175717 0.0
1.5573652006 3.9610175717 0.0
1.28993057938 3.85776473604 0.0
1.34652710411 3.82072629166 0.0
0.897316840472 3.87585124602 0.0
0.814484972147 3.79171515708 0.0
0.573290986674 3.7879873938 0.0
1.02164717476 3.69631051635 0.0
0.41798215839 3.87594988344 0.0
1.18469655214 3.6045863568 0.0
0.657426542805 3.87734841349 0.0
0.0893439701605 3.9657484063 0.0
1.51065602984 3.9657484063 0.0
0.850202761783 3.61862953305 0.0
0.185775988195 3.86980628439 0.0
1.41422401181 3.86980628439 0.0
0.305957202498 3.87340573583 0.0
0.629999992124 3.96272981278 0.0
0.686026569054 3.68766751472 0.0
1.03220081924 3.96436031967 0.0
0.445441337222 3.69456289967 0.0
1.33308537187 3.96770341358 0.0
1.0249206042 3.60512275769 0.0
0.128645746764 3.81165411571 0.0
1.47135425324 3.81165411571 0.0
1.29077706219 3.96625078806 0.0
1.21302440104 3.96491551313 0.0
0.373320303365 3.89968789902 0.0
0.409457647309 3.96502881891 0.0
1.39076199588 3.96614348387 0.0
1.2156032112 3.76624353786 0.0
0.383301616321 3.78976397621 0.0
0.593246012246 3.8948346816 0.0
0.833004203108 3.89475034107 0.0
0.187583903859 3.70688411961 0.0
1.41241609614 3.70688411961 0.0
1.08573330585 3.89673930733 0.0
1.04303343403 3.81530385578 0.0
0.103644791029 3.90516202075 0.0
1.49635520897 3.90516202075 0.0
1.23586605501 3.85112068621 0.0
0.921814270996 3.70213058021 0.0
0.532219762185 3.7029333087 0.0
1.28217045716 3.7375098981 0.0
0.779621693208 3.70806977531 0.0
0.998890529268 3.88397615296 0.0
0.659406618131 3.76469373474 0.0
0.230043799244 3.91599372373 0.0
1.53690667654 3.72637971331 0.0
0.0630933234627 3.72637971331 0.0
0.153148105836 3.90639761309 0.0
1.4478092366 3.90500627713 0.0
0.512139854501 3.90538519137 0.0
0.750930702019 3.90340708 0.0
0.0409150717909 3.90046251393 0.0
1.55908492821 3.90046251393 0.0
0.702096631597 3.96656725638 0.0
0.246204062466 3.82734823738 0.0
0.872012730916 3.80079945556 0.0
0.313419524246 3.75328100976 0.0
1.26305184675 3.57725747237 0.0
1.04341944162 3.90846795586 0.0
0.697725469476 3.93030230037 0.0
0.27003033309 3.96477332623 0.0
0.632456188669 3.80120134001 0.0
0.55988813035 3.96676596088 0.0
0.798125231733 3.9668778541 0.0
0.861599835739 3.96514225679 0.0
0.130196681328 3.96566148827 0.0
1.46980331867 3.96566148827 0.0
0.337465698618 3.96873835045 0.0
1.10690030388 3.57445060302 0.0
1.07038768144 3.96631210642 0.0
0.201908835349 3.96783542832 0.0
1.17640357301 3.96795841043 0.0
0.482502283815 3.8454083814 0.0
1.37723451734 3.90442225885 0.0
0.722497886517 3.84543272537 0.0
0.254749007352 3.57960328731 0.0
0.449206209982 3.91785378051 0.0
0.907803563184 3.91575967116 0.0
0.997592319531 3.96832081731 0.0
1.3597087328 3.59165409162 0.0
0.797785363131 3.87112617582 0.0
0.557788209884 3.87112741711 0.0
0.133223775006 3.57024633267 0.0
1.46673023696 3.57019175074 0.0
0.296361477075 3.90524448543 0.0
1.29555045611 3.90092076583 0.0
1.11951450862 3.79592056714 0.0
0.341558640376 3.57546927501 0.0
0.974255514016 3.92370320024 0.0
0.664786082443 3.91707165091 0.0
1.1442561544 3.86460464827 0.0
0.430695849932 3.74774845865 0.0
1.22439218721 3.92431164104 0.0
0.917330800791 3.76752811157 0.0
0.0995806821614 3.83759752714 0.0
1.50041931784 3.83759752714 0.0
0.586492545959 3.6571718064 0.0
1.16809690663 3.90376349956 0.0
0.490525946651 3.9687439861 0.0
0.170108846494 3.77025381333 0.0
0.726723612771 3.96611364881 0.0
1.42998397347 3.77014833166 0.0
1.55978981314 3.82099569701 0.0
0.0402101868575 3.82099569701 0.0
1.10043652243 3.92805072974 0.0
1.34111814411 3.91924529479 0.0
1.27430066613 3.93505265881 0.0
0.56431092584 3.57086686051 0.0
0.930516510487 3.96969091611 0.0
1.17713743504 3.67180033503 0.0
0.801256410508 3.5635758738 0.0
1.37979186382 3.84566323689 0.0
1.02277822921 3.7577258162 0.0
0.252009847995 3.68167957306 0.0
0.0497138210057 3.58866012032 0.0
1.55028617899 3.58866012032 0.0
0.466046622144 3.57331739513 0.0
0.343019074867 3.81481221655 0.0
0.0645235269233 3.96909610548 0.0
1.53547647308 3.96909610548 0.0
0.0310141903995 3.92955737583 0.0
[...]
POINT_DATA 856
VECTORS Displacement float
0.0 0.0 0
0.0 0.0 0
-1.52467882606e-05 0.000113996994247 0
2.77343260327e-05 0.000118254811461 0
0.0 0.0 0
0.0 0.0 0
0.0 0.0 0
0.0 0.0 0
0.0 0.0 0
0.0 0.0 0
0.0 0.0 0
0.0 0.0 0
0.0 0.0 0
0.0 0.0 0
0.0 0.0 0
0.0 0.0 0
0.0 0.0 0
0.0 0.0 0
0.0 0.0 0
0.0 0.0 0
0.0 0.0 0
0.0 0.0 0
0.0 0.0 0
0.0 0.0 0
0.0 0.0 0
0.0 0.0 0
8.17598977028e-05 -3.64914463804e-05 0
0.000138608490195 -2.71172244216e-05 0
0.000170525251381 -1.35835573845e-06 0
0.000174961189253 2.96453859896e-05 0
0.000163311018943 5.67249963537e-05 0
0.000141297409616 7.8916598837e-05 0
0.000113739380736 9.46215991092e-05 0
8.64359636684e-05 0.000104964504299 0
6.01765692912e-05 0.000110902507409 0
3.6744483371e-05 0.000113225685807 0
1.67231164524e-05 0.00011405940861 0
-3.5186865579e-07 0.000114077196861 0
-1.51672252949e-05 9.93126496299e-05 0
-1.50667702062e-05 8.5236678015e-05 0
-1.54465790968e-05 7.20193273314e-05 0
-1.66213740518e-05 5.96810460015e-05 0
-1.89510742098e-05 4.80815808589e-05 0
-2.27353525854e-05 3.657476635e-05 0
-2.81850599942e-05 2.55390896854e-05 0
-3.54477481023e-05 1.35901857608e-05 0
-4.48326586723e-05 1.17470890266e-06 0
-5.59321474193e-05 -1.30387353828e-05 0
-6.94829555316e-05 -2.83675419818e-05 0
-8.5160832513e-05 -4.66229384743e-05 0
-0.000103721111581 -6.74087203233e-05 0
-0.000124550690342 -9.17842623191e-05 0
-0.000147237541945 -0.000120136321163 0
-0.000173520035534 -0.000152666235053 0
-0.000201570712413 -0.000190172949026 0
-0.000231704682552 -0.00023422021289 0
-0.000265292479978 -0.000285173388549 0
-0.000302907593075 -0.000342882570544 0
-0.000341906819062 -0.0004105156895 0
-0.000385552799874 -0.000487788252259 0
-0.000429627457412 -0.000576545887617 0
-0.000475998813221 -0.000679100400933 0
-0.000527147008643 -0.000793693735455 0
-0.000579148269662 -0.000925862045563 0
-0.00063720390865 -0.00107675405318 0
-0.000694535070313 -0.00125002345182 0
-0.000758259014464 -0.00145080621742 0
-0.00081867118659 -0.00168184798445 0
-0.000885023637829 -0.00194708037209 0
-0.000956032152308 -0.002265085549 0
-0.00101957010271 -0.00264042668964 0
-0.00109746802935 -0.00310873885538 0
-0.00114657632972 -0.00368789145929 0
-0.00118371132975 -0.00451176340943 0
-0.00101823165146 -0.0058413437214 0
-0.00073817795416 -0.00702322342265 0
-0.000366726074969 -0.00772553814425 0
3.80765362901e-05 -0.0079567123219 0
0.000424767643177 -0.0077296417671 0
0.000804052775471 -0.00702660758436 0
0.00107558381488 -0.00584699013137 0
0.00121444989673 -0.00448762088789 0
0.00118143169898 -0.00368914231173 0
0.00111364789609 -0.00309762579103 0
0.00103901506036 -0.00263529244776 0
0.000966674089921 -0.00225805603028 0
0.000903890802879 -0.00194353896831 0
0.000834695940365 -0.0016751392635 0
0.000771094027269 -0.00144446909657 0
0.000709545696278 -0.00124650871464 0
0.000652210110129 -0.00107420354318 0
0.000595049915231 -0.000922221430274 0
0.000542488851018 -0.000789184362903 0
0.000489474006804 -0.000673686836209 0
0.000441858776356 -0.00057280230107 0
0.00039623275815 -0.000485725971433 0
0.000355298676538 -0.000408380275563 0
0.000315428984907 -0.000341334487509 0
0.00027774369047 -0.000283341000582 0
0.000244388116142 -0.00023253463818 0
0.000213192079696 -0.000189224758258 0
0.000185073396915 -0.000151170415751 0
0.000159030128645 -0.000118790966759 0
0.000136381604547 -9.04174212771e-05 0
0.000115617600309 -6.64787522027e-05 0
9.77708274961e-05 -4.52285385452e-05 0
8.19407916108e-05 -2.70981273422e-05 0
6.81760423901e-05 -1.14253553592e-05 0
5.71437492872e-05 2.89759339305e-06 0
4.78317332573e-05 1.54517215088e-05 0
4.06094983557e-05 2.77379784734e-05 0
3.51470170616e-05 3.90658987335e-05 0
3.13903884433e-05 5.0827503327e-05 0
2.90828711541e-05 6.27173874897e-05 0
2.79232921716e-05 7.53580336969e-05 0
2.75509306846e-05 8.88824909073e-05 0
2.76543972674e-05 0.000103265857444 0
1.25325841352e-05 0.000118335402317 0
-4.87783766828e-06 0.000118321863132 0
-2.52686056886e-05 0.000117498301772 0
-4.9116472618e-05 0.000115195633684 0
-7.58563746574e-05 0.000109295260475 0
-0.000103750764227 9.89980730224e-05 0
-0.000132016946518 8.3330178999e-05 0
-0.000154963431288 6.11547831392e-05 0
-0.000167797238016 3.39719366185e-05 0
-0.000164813326935 2.62041288009e-06 0
-0.000134523760444 -2.38178051902e-05 0
-7.94001804808e-05 -3.42790789229e-05 0
-0.000238093259181 -4.9079176426e-05 0
0.000248306498397 -5.00485242171e-05 0
-0.000455041677739 -0.000597291064714 0
-0.000322750750087 -0.00215938885843 0
0.000533756062394 -0.00153854861034 0
0.000302396206063 -0.000399587395949 0
-8.91622569032e-05 3.45195750756e-05 0
9.95692932252e-05 3.21833142645e-05 0
-0.000171539287754 -0.000226299784288 0
-0.000439389816093 -0.00158427723039 0
0.000291298108817 -0.0035158206571 0
0.000294395567334 -0.0011003875818 0
-8.06481067074e-05 -3.96929703841e-05 0
9.16719521107e-05 -4.19182492135e-05 0
-8.27729880228e-05 -0.00057779959062 0
-0.000430822475232 -0.00337368837275 0
0.00035035677883 -0.00236433641909 0
4.84263427879e-05 -0.000185310609217 0
1.18659117184e-05 -0.000596710337613 0
1.64516968018e-05 -0.0011124270602 0
-7.78181178796e-05 -0.00526566324913 0
-2.76520953998e-05 6.80203536564e-05 0
3.90835257736e-05 6.48556138946e-05 0
0.000195913695479 1.39872286402e-05 0
-0.000188146314777 1.60138737736e-05 0
1.80494310219e-05 -0.000146886177479 0
0.000460075229193 -0.00048575059795 0
-1.63979092844e-05 5.16651831287e-06 0
2.59427952399e-05 4.09900130738e-06 0
-6.77578025336e-05 -0.00205778759577 0
0.000367597533352 -0.00430912203363 0
0.000226562195028 -0.00181406812743 0
-0.000515453686438 -0.00115056352815 0
7.24737453589e-05 -0.000348427124654 0
-0.00035138897954 -0.000209701884958 0
-5.39027420204e-05 -0.00153062017992 0
0.000361290647131 -0.000194351681321 0
-8.19889385585e-05 -0.000353046794385 0
-1.99377548707e-05 -8.78827786867e-05 0
-1.0781566883e-05 3.71166010804e-05 0
2.23691968604e-05 3.48703803311e-05 0
0.000499188728771 -0.00077817056138 0
-0.000156556989594 -0.000966853993728 0
3.03048459985e-05 -6.31562182885e-05 0
0.000249125122878 -0.000151429854337 0
-0.000186420067013 -0.00345624671779 0
-0.000353457367171 -0.000928027694202 0
-0.000192614296326 -1.95209055054e-05 0
0.000195425561578 -2.10409350531e-05 0
0.00033060964958 -0.000790647969713 0
-0.000390536659647 -0.000378747035359 0
-0.000125814004285 -0.001017877616 0
0.000185622014775 -0.000699547680858 0
-0.000217850086108 -0.00464863390433 0
-0.000156123364394 -1.97870393984e-06 0
0.000168449160658 -6.60263703261e-06 0
-3.38956602837e-05 -0.0028647532394 0
-9.19522861109e-05 6.61242180848e-05 0
0.000102318566157 6.28205655287e-05 0
-8.85653414156e-05 -0.000191681179648 0
-0.000205191995732 -0.000101526272549 0
-0.000281869361128 -8.75372409387e-05 0
-0.000306956955665 -0.000165474259455 0
0.000204192302387 -0.00576406883455 0
0.000235797333791 -0.0015520007826 0
0.000176569552632 -0.00282212305678 0
-1.67586170556e-05 -3.46444147561e-05 0
0.000537146961653 -0.00228231048793 0
-0.000284596381048 -0.000455791923613 0
-0.000500781114523 -0.00241286453874 0
0.000128319556458 -0.000243096675268 0
0.000143124113544 -0.000331787507757 0
-0.000192888146365 -0.000501347982785 0
4.34876529124e-05 -2.67853206511e-05 0
-0.000315508129161 -0.000650454122044 0
0.000464597632864 -0.00170747451757 0
0.000281673968368 -0.000671577198698 0
0.000179839013734 5.35983621019e-06 0
-0.000174896890347 7.34856099214e-06 0
0.000329979784156 -0.000983032482663 0
0.000240440188798 -0.00051071886185 0
-8.52902002792e-05 -0.00629677301768 0
0.000159428246703 4.40474480335e-05 0
-0.000150414402722 4.71465373666e-05 0
-0.000345590861479 -0.00206098338399 0
0.000100018758656 -0.000123452124148 0
0.00027723310295 -7.71563623203e-05 0
-0.000258363853007 -0.000698357317496 0
0.000441256458719 -0.000416462508128 0
-4.36214994842e-05 -0.00400109764981 0
1.79331313126e-05 1.49288154934e-05 0
-1.10123492255e-05 1.13383417013e-05 0
-1.70462565402e-06 8.69321248515e-05 0
1.36032248815e-05 8.33266320571e-05 0
0.00013854108419 -0.000112899674455 0
0.000179878674429 -4.66471856359e-05 0
0.000481424486863 -0.00316043100417 0
8.68880844144e-05 -0.00279814051648 0
-0.000514029862665 -0.0011529143904 0
0.000510906929574 -0.000861504166955 0
-0.000118475217569 -0.000366149296894 0
0.000306227327733 -0.000179419321361 0
-0.000427865212587 -0.0024031288949 0
5.36068082771e-06 5.81611920888e-05 0
6.60980126221e-06 5.52701109899e-05 0
0.000132860702475 -0.000876586766583 0
-9.00698269233e-05 7.48854901148e-06 0
0.000100426351474 6.09174326368e-06 0
-9.40703462688e-05 -0.000104998858469 0
0.000376546891832 -0.00207349795439 0
-0.000366172823652 -0.00129934363247 0
-0.000369185742136 -0.00129913527551 0
-0.00043036898812 -0.000360333715943 0
-6.53663155749e-05 -6.62478940707e-05 0
0.000356126326793 -0.000455257570655 0
-0.000146018102922 2.82058580801e-05 0
0.000155593193223 2.58684291925e-05 0
-9.58835949208e-05 -0.000122607504272 0
-0.000169535403362 -0.000287160131112 0
-3.26958526773e-05 -0.000236874141353 0
0.00020806459666 -0.000353280740006 0
-2.8489064301e-05 -1.34623144132e-05 0
0.000344570944697 -0.000254589039145 0
-0.000299992893023 -0.00025574236477 0
-0.000204967867328 -0.00154408751336 0
0.000256981898321 -0.00448381476359 0
-0.000218407026544 -1.32580349072e-05 0
0.000224838633775 -1.40912295407e-05 0
0.000105385034945 -0.00084878401335 0
0.00046378991458 -0.00109829786631 0
-5.06165023703e-05 4.98997052149e-05 0
6.16615458561e-05 4.72116107681e-05 0
0.000173789885447 -0.000215443865941 0
0.000405431988733 -0.00138732337186 0
-0.000495929069822 -0.000673654554623 0
0.000305520604176 -0.000126102167354 0
-8.31808303538e-05 -0.001760961525 0
0.00030645159353 -0.00163145292292 0
-0.00050471881207 -0.00173245397714 0
-2.0995903858e-05 -2.28147418641e-05 0
0.000186101844706 2.44672911364e-05 0
-0.000178943296472 2.73853906987e-05 0
-4.54458963821e-05 2.57241212692e-05 0
5.85246691448e-05 2.40401585656e-05 0
-4.26580580216e-05 -0.000830982265579 0
-0.000325368582277 -0.00442200940461 0
-5.55342721608e-05 8.34157056638e-05 0
6.65142515505e-05 7.97848059893e-05 0
0.000222304718295 -0.00372439653132 0
-0.000157750729858 -3.88633634848e-05 0
0.000372671646063 -0.00262915841242 0
-0.000282364765996 -0.000120754212214 0
0.000206209655325 -7.81195537448e-05 0
7.96749611911e-05 -0.00118274483986 0
-0.000242216414754 -0.00347798496711 0
7.47400192024e-05 -6.80910527349e-05 0
-0.000532490698215 -0.00172131964814 0
0.000401646467282 -0.00122080204015 0
2.08224162543e-05 -0.00682941066011 0
5.98903773142e-05 -0.00518389350285 0
1.21069650736e-05 3.58946067346e-05 0
-1.17568693747e-07 3.35502656255e-05 0
0.000140362848819 -0.00017121901514 0
0.000269754713181 -0.000215436613588 0
-0.000349285320337 -0.000972499867445 0
3.88327091068e-05 -7.08895854313e-06 0
-0.000223754131602 -0.000405395775689 0
-0.000272442514242 -0.00063762729968 0
5.13712201796e-05 -1.81664453155e-05 0
-0.000427602123112 -0.0031065712416 0
-0.000161815978514 -3.88322669736e-05 0
3.6664100569e-05 -0.000491099713315 0
0.000350636843738 -0.00326846195757 0
-0.000432311018947 -0.00168707228533 0
0.000175859666681 -3.80135611819e-05 0
-1.10391038697e-05 -0.00415185867383 0
-0.000271550968137 -0.00116998494824 0
-0.00010444969556 -5.86676340022e-06 0
0.000106927506105 -6.59954538145e-06 0
-2.68015566719e-05 -9.28377601668e-05 0
4.66758071075e-05 -0.000104766813475 0
0.000406477300291 -0.000603464484801 0
-0.000202326294963 -7.93055344176e-05 0
8.19854168072e-05 -0.0020035331575 0
-0.000236944148353 -0.00266913463232 0
0.000193031826499 -0.000517549804647 0
-0.000399678625946 -0.000370671289926 0
-3.04602816824e-05 -0.00024702700395 0
0.000473508975248 -0.00194218902117 0
-0.000118646580104 4.37645046924e-05 0
0.000128517072205 4.10927301633e-05 0
-0.000442147286903 -0.000716217180578 0
3.50035861406e-05 -0.000422364581064 0
0.000330725000298 -0.0007111681989 0
-0.000188320230704 3.999891458e-06 0
3.8506649324e-05 -0.00468477971326 0
0.000196929828518 2.13730231344e-06 0
0.000136256530914 6.24380967458e-05 0
-0.000126697383631 6.60517839557e-05 0
-7.75125630099e-05 -0.000754897189331 0
2.02344942606e-05 -5.0791595452e-05 0
-3.78336415674e-05 -0.000142564232593 0
-0.000264479669032 -0.000289471369089 0
-0.000402254930854 -0.00282942697417 0
0.00040472496463 -0.000280852310046 0
1.38067080765e-06 -0.000444284267116 0
0.000136141682972 -1.7512423323e-05 0
0.000541571656955 -0.00109647421205 0
-0.000253192232837 -5.26179660964e-05 0
-0.000108520858853 -6.64277659256e-06 0
0.000111365793262 -8.28498525558e-06 0
-0.000261911074332 -0.00017887825661 0
-0.000226272937812 -0.000168345173792 0
5.78687913228e-06 7.28265817853e-05 0
6.2311042615e-06 6.95584284061e-05 0
-2.86814971839e-05 9.33011853384e-05 0
4.01080044154e-05 8.95112227709e-05 0
-0.000161184241087 -0.000466423952741 0
-8.33274282066e-05 -0.0001515583909 0
-0.000337644669252 -0.000165520021281 0
-0.000470003355975 -0.000820598188432 0
-0.000178374568284 -0.0026401056276 0
0.000158701398425 -0.000482594582046 0
0.000247345904887 -8.81591819035e-05 0
-0.000121100231923 1.85900400191e-05 0
-0.000157836820095 -0.00019941119959 0
0.000131153053028 1.82317085974e-05 0
0.000291656855648 -0.00025311581101 0
0.000503402550649 -0.00220413567336 0
-0.000340683623842 -0.000617148514321 0
5.21638144595e-05 -0.00353874505022 0
-0.000414360766042 -0.00120723937779 0
-5.59908251288e-05 -4.42794771585e-05 0
-2.07491910173e-05 5.2522320049e-05 0
3.22586609625e-05 4.97922008968e-05 0
0.000500234449757 -0.00173224427459 0
0.000501843272323 -0.00249192252745 0
0.000380286570538 -0.000902982201645 0
-5.18358351345e-05 6.5590073021e-05 0
6.28746799257e-05 6.24549078343e-05 0
-0.000197048277318 6.09205774084e-06 0
0.000203313340107 4.30312484427e-06 0
-0.000143753635774 -0.00691154589554 0
0.00041940007159 -0.00390724020641 0
0.000207909249009 -0.000288385224776 0
7.0231364734e-06 9.81148869086e-05 0
5.04724710612e-06 9.42672054748e-05 0
0.000545479298822 -0.00174198542745 0
-0.000306742005237 -0.00196248691806 0
-0.000101356527664 -9.78494144392e-05 0
-9.71811515261e-05 -1.39698619332e-05 0
0.000493251398877 -0.000584538204273 0
-1.42656237995e-05 2.44421254468e-05 0
2.06710041177e-05 -0.00032003250305 0
2.8509060926e-05 2.12869823665e-05 0
0.000283507837158 -0.000429891282435 0
0.000475467016183 -0.00287479381506 0
-0.000134712850051 -0.000597393690526 0
-0.000513667629607 -0.00207224254536 0
0.000233945474588 -0.000362352232587 0
-0.000221549157781 -0.000327627225084 0
-4.96577885421e-05 -4.36814489183e-06 0
0.000254189232363 -4.40638050278e-05 0
-3.26945606045e-05 -2.1751899736e-06 0
-0.000219171776126 -0.000806739197089 0
-0.000331765915334 -0.0037849867553 0
-0.000383829624941 -0.000604638417401 0
8.19817770473e-05 -5.06829463885e-05 0
3.22976929538e-05 -0.00136035923745 0
0.000130623687018 -0.00538992347416 0
-0.000392797465518 -0.00259711574592 0
5.06791469875e-05 -0.000198759483599 0
0.000418433499673 -0.00306550173637 0
-0.00048334781366 -0.00284449586321 0
-8.11195148224e-05 8.22579457506e-05 0
9.16541418127e-05 7.8537447522e-05 0
-0.000125632048475 -0.00120798924615 0
0.000492884077274 -0.0011866876008 0
0.000120192412578 -1.77878528787e-05 0
-0.000144594159631 -0.000155753701448 0
0.000114072721431 -9.58140030063e-05 0
-0.000192349594175 -2.56677866942e-05 0
-2.69192512234e-05 -4.53094148173e-05 0
-0.000522282793151 -0.000888764844043 0
-0.000183778883954 -0.00049348686257 0
-0.000126413393482 -6.32913582459e-05 0
-0.000111524587254 -1.63785724698e-05 0
0.000364032108509 -0.000611503685001 0
0.000433178375552 -0.000835890578417 0
0.00018922210731 -0.00596422214723 0
0.000143516306045 -0.000660140086488 0
-8.63762471599e-05 5.13542416527e-05 0
9.69082639949e-05 4.8550390937e-05 0
0.000179557948958 1.15881356064e-05 0
-0.000173822777394 1.43775086867e-05 0
0.000205474517518 -2.84033515322e-05 0
-2.03859679776e-05 -0.00224529301416 0
-0.00062076919174 -0.00243383957966 0
2.86124910328e-05 2.45390701642e-05 0
-1.70534721705e-05 2.19379986992e-05 0
-0.000314658136467 -0.000135837810988 0
0.000181423221795 -0.000224525045826 0
-0.000591171850302 -0.00332678201802 0
-2.0575939099e-06 -1.4615064683e-05 0
0.000125769264998 -0.000854437285028 0
-0.000286404280045 -0.00488869885283 0
-0.00040881107813 -0.000839184858032 0
1.95270311834e-05 4.59328140427e-05 0
-7.37346888792e-06 4.33405786535e-05 0
-6.11665992124e-05 -0.000484997481484 0
0.0002056351833 -9.4497946484e-05 0
0.000480727563993 -0.00143982634559 0
0.000438959120628 -0.000789655984896 0
0.000301948366486 -0.000121133068352 0
9.5941807147e-05 -0.000248989067388 0
-0.000488224970536 -0.0011335055691 0
-0.000379358454333 -0.000290398656713 0
6.70103733512e-05 -6.33759283206e-05 0
0.000195244850454 -0.00113569339649 0
-5.39907713319e-05 -0.00598478893188 0
1.33039863651e-05 -8.19759977608e-06 0
-0.000362367358411 -0.00408985419931 0
2.61019928096e-05 -9.15895999253e-05 0
0.000130635614813 -6.66854090311e-05 0
8.81347004617e-05 -0.00145892942274 0
0.000224629136434 -1.95578478226e-05 0
-0.000141324430475 -0.000157295544647 0
-0.000264316512082 -0.00167542943676 0
0.000372905359565 -0.00139318935538 0
-0.000470105997902 -0.000523704730243 0
4.87491042669e-05 -0.000614641954557 0
-0.000196591690213 -0.000253422789724 0
6.47103990736e-05 -1.35313340917e-06 0
-0.000215999129917 -1.74930432767e-05 0
0.000258700407619 -0.00138663456231 0
-0.000303346271195 -0.00050701860283 0
-0.000254686014763 -0.000902719050953 0
0.000156292897828 5.56638202643e-05 0
-0.000147380908155 5.94135189231e-05 0
0.00015807021923 -0.0024491254743 0
0.000240332321495 -0.000851955309849 0
0.000160047827612 -0.000409282171789 0
0.000402353423932 -0.000378487895916 0
-0.000223591296754 -4.40958517383e-05 0
6.04346987993e-05 -2.18271117743e-05 0
-0.00017158632048 -8.32801248434e-05 0
0.000273664988442 -0.00509518076832 0
0.000163402826304 -0.00185512692246 0
8.82628616169e-05 -0.00239130113332 0
0.000142781052926 -0.000144422674389 0
-5.88592686377e-06 -0.000393322523516 0
5.58932832738e-07 4.57709637111e-05 0
7.79765149948e-05 -0.000153870306806 0
1.129098561e-05 4.32124496689e-05 0
0.000121056668755 -0.000171723124207 0
0.000510560967451 -0.00110702564007 0
8.13799111668e-05 -0.00700388555344 0
-0.000122118505626 -0.0017951746133 0
-0.000212589766556 -6.54539209584e-05 0
-0.000443283044082 -0.000953206745473 0
0.000522234549197 -0.00143418960926 0
0.00021872249568 -0.000406782423896 0
0.000228290639994 -0.000294164681855 0
-0.000297729598306 -0.00111457363249 0
0.000157491723618 -0.00347229999535 0
7.00199461835e-05 -0.00027661940462 0
-5.14442525504e-06 4.76901505887e-08 0
-0.000304053151743 -0.000184579642105 0
-0.000344909631887 -0.00472640465205 0
-0.000276042829883 -8.02982157747e-05 0
0.000176840894769 -8.56024065489e-05 0
1.62709565994e-05 -3.71721593394e-05 0
7.21892758134e-06 2.77587841912e-05 0
5.00975539613e-06 2.28611441001e-05 0
0.000349062545822 -0.00218400907351 0
1.54321754621e-05 8.36196153569e-05 0
-3.20968476791e-06 8.00938278166e-05 0
-0.000586816565078 -0.00192058166213 0
4.31564695474e-05 1.24595885248e-06 0
-0.000167085659131 3.03940291289e-05 0
0.000175735704415 2.79336088978e-05 0
0.000395756582845 -0.000283366112683 0
-0.000248111751965 -0.00084008981605 0
-1.78696662506e-05 -0.000186626456138 0
6.80777100494e-05 -9.03587775774e-05 0
0.000242056285835 -0.00304023998514 0
-0.000143139288208 -0.000254016276011 0
0.000138831751474 -0.00144499478345 0
-0.000396088450079 -0.00280774683336 0
-0.000501995108695 -0.00146900487672 0
-0.000133347490269 -0.00099321379325 0
-0.000191606477413 -0.00452718772115 0
-1.05113022533e-05 0.000101467503635 0
2.22553716541e-05 9.75348926625e-05 0
-0.000386482813314 -0.000451639824202 0
-0.000101838041492 -0.000245574264043 0
-3.79192308457e-05 3.80383918227e-05 0
0.000664529803072 -0.00207721919635 0
4.93419183935e-05 3.57275971028e-05 0
-5.91451480725e-05 -8.84458344283e-05 0
0.000320876787568 -0.00480764778751 0
-0.000380421252227 -0.000248030986831 0
-0.000543161509266 -0.00137433262426 0
0.000340082867565 -0.000183013350284 0