# vtk DataFile Version 2.0
Generated with Solid Solver
ASCII
DATASET UNSTRUCTURED_GRID
POINTS 856 float 
0.0 3.5 0.0
1.6 3.5 0.0
1.6 4.0 0.0
0.0 4.0 0.0
0.0695652173912 3.5 0.0
0.139130434782 3.5 0.0
0.208695652174 3.5 0.0
0.278260869565 3.5 0.0
0.347826086956 3.5 0.0
0.417391304347 3.5 0.0
0.486956521738 3.5 0.0
0.556521739129 3.5 0.0
0.62608695652 3.5 0.0
0.695652173911 3.5 0.0
0.765217391302 3.5 0.0
0.834782608694 3.5 0.0
0.904347826085 3.5 0.0
0.973913043477 3.5 0.0
1.04347826087 3.5 0.0
1.11304347826 3.5 0.0
1.18260869565 3.5 0.0
1.25217391304 3.5 0.0
1.32173913043 3.5 0.0
1.39130434783 3.5 0.0
1.46086956522 3.5 0.0
1.53043478261 3.5 0.0
1.6 3.56430812594 0.0
1.6 3.62270835268 0.0
1.6 3.6757434324 0.0
1.6 3.7239062376 0.0
1.6 3.76764438351 0.0
1.6 3.80736436404 0.0
1.6 3.84343531219 0.0
1.6 3.87619247117 0.0
1.6 3.90594026707 0.0
1.6 3.93295517284 0.0
1.6 3.95748825478 0.0
1.6 3.97976750982 0.0
1.58000000587 4.0 0.0
1.55999996633 4.0 0.0
1.54000002214 4.0 0.0
1.51999997198 4.0 0.0
1.50000000455 4.0 0.0
1.48000000216 4.0 0.0
1.45999997931 4.0 0.0
1.44000002484 4.0 0.0
1.41999997044 4.0 0.0
1.40000002096 4.0 0.0
1.37999999963 4.0 0.0
1.35999999626 4.0 0.0
1.34000002179 4.0 0.0
1.31999997343 4.0 0.0
1.3000000318 4.0 0.0
1.27999998783 4.0 0.0
1.26000000202 4.0 0.0
1.24000001295 4.0 0.0
1.21999998074 4.0 0.0
1.20000003685 4.0 0.0
1.17999998163 4.0 0.0
1.16000001473 4.0 0.0
1.14000000469 4.0 0.0
1.11999999139 4.0 0.0
1.10000003625 4.0 0.0
1.07999997877 4.0 0.0
1.06000002802 4.0 0.0
1.04000000338 4.0 0.0
1.02000000764 4.0 0.0
1.00000002986 4.0 0.0
0.979999980237 4.0 0.0
0.960000035522 4.0 0.0
0.939999990881 4.0 0.0
0.920000014619 4.0 0.0
0.900000017903 4.0 0.0
0.879999986222 4.0 0.0
0.860000037278 4.0 0.0
0.839999982352 4.0 0.0
0.820000022783 4.0 0.0
0.800000000002 4.0 0.0
0.779999977222 4.0 0.0
0.760000017652 4.0 0.0
0.739999962726 4.0 0.0
0.720000013782 4.0 0.0
0.699999982101 4.0 0.0
0.679999985385 4.0 0.0
0.660000009123 4.0 0.0
0.639999964482 4.0 0.0
0.620000019766 4.0 0.0
0.599999970141 4.0 0.0
0.57999999236 4.0 0.0
0.559999996622 4.0 0.0
0.539999971983 4.0 0.0
0.520000021235 4.0 0.0
0.499999963756 4.0 0.0
0.480000008612 4.0 0.0
0.459999995315 4.0 0.0
0.439999985272 4.0 0.0
0.420000018371 4.0 0.0
0.39999996315 4.0 0.0
0.380000019261 4.0 0.0
0.359999987052 4.0 0.0
0.339999997986 4.0 0.0
0.320000012172 4.0 0.0
0.299999968206 4.0 0.0
0.280000026575 4.0 0.0
0.259999978213 4.0 0.0
0.240000003742 4.0 0.0
0.220000000371 4.0 0.0
0.199999979041 4.0 0.0
0.180000029557 4.0 0.0
0.159999975162 4.0 0.0
0.140000020694 4.0 0.0
0.119999997846 4.0 0.0
0.0999999954514 4.0 0.0
0.0800000280232 4.0 0.0
0.0599999778571 4.0 0.0
0.0400000336732 4.0 0.0
0.0199999941324 4.0 0.0
0.0 3.97976750982 0.0
0.0 3.95748825478 0.0
0.0 3.93295517284 0.0
0.0 3.90594026707 0.0
0.0 3.87619247117 0.0
0.0 3.84343531219 0.0
0.0 3.80736436404 0.0
0.0 3.76764438351 0.0
0.0 3.7239062376 0.0
0.0 3.6757434324 0.0
0.0 3.62270835268 0.0
0.0 3.56430812594 0.0
0.249757905714 3.75212552678 0.0
1.35000000902 3.74954526597 0.0
0.488714190926 3.75947467509 0.0
0.727445026698 3.75983525744 0.0
0.962900270309 3.76055270856 0.0
1.17161197633 3.81755162829 0.0
0.130754031542 3.86878251069 0.0
1.46924596846 3.86878251069 0.0
0.369913852535 3.84868154079 0.0
0.603236233099 3.84763103091 0.0
0.843402107212 3.84736931152 0.0
1.05041705507 3.86611282467 0.0
0.250539323282 3.87785527135 0.0
1.34882231626 3.87787871523 0.0
0.468661896861 3.89189320321 0.0
0.704258117309 3.89639128976 0.0
0.94963922804 3.89654080835 0.0
1.25000000748 3.89875296068 0.0
1.12879020517 3.91059303421 0.0
0.548928478218 3.91905583534 0.0
0.7889268651 3.91906062813 0.0
0.0712526194949 3.93011432704 0.0
1.52874738051 3.93011432704 0.0
1.4740071133 3.74293106904 0.0
0.125992886699 3.74293106904 0.0
0.329956761073 3.92118145982 0.0
1.09412206522 3.66725831207 0.0
0.190000004299 3.92542384899 0.0
1.41098423528 3.92728100222 0.0
0.629999992124 3.92414139091 0.0
0.87000001175 3.92414140592 0.0
0.853391941071 3.71944243214 0.0
0.610032822379 3.72536074396 0.0
0.41090315692 3.92892991009 0.0
0.370435019193 3.7251305208 0.0
1.01000001875 3.93130199947 0.0
1.22823348571 3.68694249365 0.0
1.18894423177 3.93487447818 0.0
1.31063576122 3.93502724255 0.0
0.129927636183 3.94112156482 0.0
1.47007236382 3.94112156482 0.0
1.07646504896 3.76194504855 0.0
1.07000000339 3.94017719684 0.0
0.270000002394 3.93875928556 0.0
1.26759839792 3.80243333593 0.0
0.770332946246 3.83880063275 0.0
0.530342720064 3.83880306325 0.0
0.189898092614 3.63474333735 0.0
1.4101772205 3.6313147556 0.0
0.942883893479 3.62966700486 0.0
0.510631148905 3.62429064243 0.0
0.754670889573 3.63369080225 0.0
0.489999986184 3.94463854908 0.0
0.732500655853 3.9452729887 0.0
0.193627936713 3.81528931126 0.0
1.40183871842 3.81461096917 0.0
0.928721275957 3.94715071018 0.0
0.0604617896557 3.86281267064 0.0
1.53953821034 3.86281267065 0.0
1.25036152032 3.94913766834 0.0
0.30096552553 3.81141484704 0.0
0.297089357677 3.66359682597 0.0
0.394212311705 3.61316974741 0.0
0.831051681923 3.94633984116 0.0
0.592085081305 3.94901138542 0.0
0.669405291514 3.95495209798 0.0
1.3611855791 3.94637621082 0.0
0.928496698914 3.82436133158 0.0
0.444093171593 3.8271987226 0.0
0.683378885111 3.8234871366 0.0
0.372430737197 3.95235208784 0.0
1.19348789949 3.87019408468 0.0
1.15124363553 3.95467023547 0.0
0.229287653728 3.96038323295 0.0
0.646635519079 3.61231195482 0.0
0.986819459779 3.84973028271 0.0
1.11214815433 3.84770266014 0.0
1.50610225987 3.6604664246 0.0
0.0938977401332 3.6604664246 0.0
0.531976760298 3.96138656711 0.0
0.451361041931 3.96112773652 0.0
0.771976835888 3.96138886125 0.0
1.53311213884 3.79435404356 0.0
0.066887861162 3.79435404356 0.0
0.970836553066 3.9620233382 0.0
0.311702426505 3.96111572975 0.0
1.31698094247 3.6658628839 0.0
1.11177843379 3.95948388532 0.0
1.15003411964 3.72957279566 0.0
0.890058924798 3.96133576813 0.0
0.169108880648 3.96040269401 0.0
1.42850737314 3.96465656678 0.0
0.0426347993992 3.9610175717 0.0
1.5573652006 3.9610175717 0.0
1.28993057938 3.85776473604 0.0
1.34652710411 3.82072629166 0.0
0.897316840472 3.87585124602 0.0
0.814484972147 3.79171515708 0.0
0.573290986674 3.7879873938 0.0
1.02164717476 3.69631051635 0.0
0.41798215839 3.87594988344 0.0
1.18469655214 3.6045863568 0.0
0.657426542805 3.87734841349 0.0
0.0893439701605 3.9657484063 0.0
1.51065602984 3.9657484063 0.0
0.850202761783 3.61862953305 0.0
0.185775988195 3.86980628439 0.0
1.41422401181 3.86980628439 0.0
0.305957202498 3.87340573583 0.0
0.629999992124 3.96272981278 0.0
0.686026569054 3.68766751472 0.0
1.03220081924 3.96436031967 0.0
0.445441337222 3.69456289967 0.0
1.33308537187 3.96770341358 0.0
1.0249206042 3.60512275769 0.0
0.128645746764 3.81165411571 0.0
1.47135425324 3.81165411571 0.0
1.29077706219 3.96625078806 0.0
1.21302440104 3.96491551313 0.0
0.373320303365 3.89968789902 0.0
0.409457647309 3.96502881891 0.0
1.39076199588 3.96614348387 0.0
1.2156032112 3.76624353786 0.0
0.383301616321 3.78976397621 0.0
0.593246012246 3.8948346816 0.0
0.833004203108 3.89475034107 0.0
0.187583903859 3.70688411961 0.0
1.41241609614 3.70688411961 0.0
1.08573330585 3.89673930733 0.0
1.04303343403 3.81530385578 0.0
0.103644791029 3.90516202075 0.0
1.49635520897 3.90516202075 0.0
1.23586605501 3.85112068621 0.0
0.921814270996 3.70213058021 0.0
0.532219762185 3.7029333087 0.0
1.28217045716 3.7375098981 0.0
0.779621693208 3.70806977531 0.0
0.998890529268 3.88397615296 0.0
0.659406618131 3.76469373474 0.0
0.230043799244 3.91599372373 0.0
1.53690667654 3.72637971331 0.0
0.0630933234627 3.72637971331 0.0
0.153148105836 3.90639761309 0.0
1.4478092366 3.90500627713 0.0
0.512139854501 3.90538519137 0.0
0.750930702019 3.90340708 0.0
0.0409150717909 3.90046251393 0.0
1.55908492821 3.90046251393 0.0
0.702096631597 3.96656725638 0.0
0.246204062466 3.82734823738 0.0
0.872012730916 3.80079945556 0.0
0.313419524246 3.75328100976 0.0
1.26305184675 3.57725747237 0.0
1.04341944162 3.90846795586 0.0
0.697725469476 3.93030230037 0.0
0.27003033309 3.96477332623 0.0
0.632456188669 3.80120134001 0.0
0.55988813035 3.96676596088 0.0
0.798125231733 3.9668778541 0.0
0.861599835739 3.96514225679 0.0
0.130196681328 3.96566148827 0.0
1.46980331867 3.96566148827 0.0
0.337465698618 3.96873835045 0.0
1.10690030388 3.57445060302 0.0
1.07038768144 3.96631210642 0.0
0.201908835349 3.96783542832 0.0
1.17640357301 3.96795841043 0.0
0.482502283815 3.8454083814 0.0
1.37723451734 3.90442225885 0.0
0.722497886517 3.84543272537 0.0
0.254749007352 3.57960328731 0.0
0.449206209982 3.91785378051 0.0
0.907803563184 3.91575967116 0.0
0.997592319531 3.96832081731 0.0
1.3597087328 3.59165409162 0.0
0.797785363131 3.87112617582 0.0
0.557788209884 3.87112741711 0.0
0.133223775006 3.57024633267 0.0
1.46673023696 3.57019175074 0.0
0.296361477075 3.90524448543 0.0
1.29555045611 3.90092076583 0.0
1.11951450862 3.79592056714 0.0
0.341558640376 3.57546927501 0.0
0.974255514016 3.92370320024 0.0
0.664786082443 3.91707165091 0.0
1.1442561544 3.86460464827 0.0
0.430695849932 3.74774845865 0.0
1.22439218721 3.92431164104 0.0
0.917330800791 3.76752811157 0.0
0.0995806821614 3.83759752714 0.0
1.50041931784 3.83759752714 0.0
0.586492545959 3.6571718064 0.0
1.16809690663 3.90376349956 0.0
0.490525946651 3.9687439861 0.0
0.170108846494 3.77025381333 0.0
0.726723612771 3.96611364881 0.0
1.42998397347 3.77014833166 0.0
1.55978981314 3.82099569701 0.0
0.0402101868575 3.82099569701 0.0
1.10043652243 3.92805072974 0.0
1.34111814411 3.91924529479 0.0
1.27430066613 3.93505265881 0.0
0.56431092584 3.57086686051 0.0
0.930516510487 3.96969091611 0.0
1.17713743504 3.67180033503 0.0
0.801256410508 3.5635758738 0.0
1.37979186382 3.84566323689 0.0
1.02277822921 3.7577258162 0.0
0.252009847995 3.68167957306 0.0
0.0497138210057 3.58866012032 0.0
1.55028617899 3.58866012032 0.0
0.466046622144 3.57331739513 0.0
0.343019074867 3.81481221655 0.0
0.0645235269233 3.96909610548 0.0
1.53547647308 3.96909610548 0.0
0.0310141903995 3.92955737583 0.0
[...]
POINT_DATA 856
VECTORS Displacement float
0.0 0.0 0
0.0 0.0 0
-3.39315892162e-06 4.84456574496e-05 0
1.13246660171e-05 5.12383722062e-05 0
0.0 0.0 0
0.0 0.0 0
0.0 0.0 0
0.0 0.0 0
0.0 0.0 0
0.0 0.0 0
0.0 0.0 0
0.0 0.0 0
0.0 0.0 0
0.0 0.0 0
0.0 0.0 0
0.0 0.0 0
0.0 0.0 0
0.0 0.0 0
0.0 0.0 0
0.0 0.0 0
0.0 0.0 0
0.0 0.0 0
0.0 0.0 0
0.0 0.0 0
0.0 0.0 0
0.0 0.0 0
3.57158567592e-05 -1.61276899918e-05 0
6.06313972681e-05 -1.22586484611e-05 0
7.47633207347e-05 -1.23682769989e-06 0
7.6993115573e-05 1.20911244044e-05 0
7.2243601623e-05 2.37512330573e-05 0
6.29930685591e-05 3.33139614383e-05 0
5.13239263046e-05 4.0083435062e-05 0
3.974301075e-05 4.45431109207e-05 0
2.85926172605e-05 4.71046271426e-05 0
1.86441909313e-05 4.81081599059e-05 0
1.01511230266e-05 4.84694407999e-05 0
2.91493594573e-06 4.84788158213e-05 0
-3.36025259563e-06 4.22270450165e-05 0
-3.31827454546e-06 3.62704612496e-05 0
-3.48302083467e-06 3.06836888514e-05 0
-3.9900010655e-06 2.54755505106e-05 0
-4.99419570464e-06 2.05856828197e-05 0
-6.62471866137e-06 1.57358868148e-05 0
-8.9722189122e-06 1.108934632e-05 0
-1.21005794893e-05 6.05005572027e-06 0
-1.61426895085e-05 8.10727225721e-07 0
-2.09234809362e-05 -5.20169225563e-06 0
-2.67598810915e-05 -1.16925963505e-05 0
-3.35129947624e-05 -1.94413646159e-05 0
-4.1507711104e-05 -2.82764909438e-05 0
-5.04805148602e-05 -3.86527189145e-05 0
-6.02550699999e-05 -5.07363825725e-05 0
-7.15779635356e-05 -6.46107137335e-05 0
-8.36651747928e-05 -8.06194025864e-05 0
-9.66534326822e-05 -9.94328569345e-05 0
-0.000111130725655 -0.000121204019005 0
-0.000127341411855 -0.000145863091683 0
-0.000144155440904 -0.000174770080541 0
-0.000162965657665 -0.000207787865586 0
-0.000181972403878 -0.000245706174084 0
-0.000201975440234 -0.000289497139188 0
-0.000224023172426 -0.00033838791418 0
-0.000246455330443 -0.000394727738617 0
-0.000271461946667 -0.000458945590116 0
-0.00029619710591 -0.000532577031689 0
-0.000323612433526 -0.000617633413528 0
-0.000349703523498 -0.000715186409095 0
-0.000378293262689 -0.000826714122913 0
-0.000408750073851 -0.000959291477722 0
-0.000436500630168 -0.00111428269912 0
-0.000470479585839 -0.00130360539865 0
-0.000495795085569 -0.00153316389907 0
-0.00052537178776 -0.00184313954161 0
-0.000520600234504 -0.00225646121772 0
-0.000439638024625 -0.00298844987467 0
-0.000242098251461 -0.00370245837963 0
2.35861347256e-05 -0.00393868377326 0
0.000272915545188 -0.00370560763743 0
0.000469435797247 -0.00298857590096 0
0.000551018741495 -0.00226690057841 0
0.000542328590996 -0.00183738443957 0
0.000517069230896 -0.0015375624945 0
0.00048467615674 -0.00130313484444 0
0.000451087174529 -0.00111432441826 0
0.000419149475473 -0.000957898505592 0
0.00039131698329 -0.000826039983506 0
0.000361119271425 -0.000713025466909 0
0.000333389323666 -0.000615465405977 0
0.000306602423998 -0.000531475735022 0
0.000281672194066 -0.000458175045009 0
0.000256866917123 -0.000393426893787 0
0.000234049274179 -0.000336662596203 0
0.000211078301762 -0.000287340618769 0
0.000190434214039 -0.000244214360111 0
0.000170666934754 -0.000206979859912 0
0.000152927551664 -0.000173888492809 0
0.000135662751745 -0.000145203324315 0
0.000119354110892 -0.000120391153379 0
0.000104918006176 -9.86518937492e-05 0
9.14212294902e-05 -8.01269021791e-05 0
7.92613163964e-05 -6.38517398051e-05 0
6.80019268387e-05 -5.00107116125e-05 0
5.8211746854e-05 -3.78849547152e-05 0
4.92416103621e-05 -2.76628733313e-05 0
4.15327071525e-05 -1.85892634174e-05 0
3.46987707457e-05 -1.08543813956e-05 0
2.87581683098e-05 -4.17139842045e-06 0
2.39980607544e-05 1.93578965646e-06 0
1.9982663026e-05 7.28508595683e-06 0
1.6869130083e-05 1.25248918516e-05 0
1.45161276163e-05 1.73555746377e-05 0
1.28984241896e-05 2.23777131446e-05 0
1.19057463334e-05 2.74583411481e-05 0
1.14074231385e-05 3.28655515951e-05 0
1.124735222e-05 3.86554676666e-05 0
1.12914957685e-05 4.48165360142e-05 0
4.81189168648e-06 5.12718109881e-05 0
-2.64877112597e-06 5.1265413916e-05 0
-1.13907300947e-05 5.09103863814e-05 0
-2.16217160291e-05 4.99183657459e-05 0
-3.30993815027e-05 4.73747970698e-05 0
-4.50784651811e-05 4.29322586275e-05 0
-5.72196999103e-05 3.61673992622e-05 0
-6.70729820808e-05 2.65876275794e-05 0
-7.25655570668e-05 1.48351886669e-05 0
-7.12347624065e-05 1.2704900195e-06 0
-5.81181444195e-05 -1.0183848186e-05 0
-3.42868395665e-05 -1.47465909486e-05 0
-0.000103026049939 -2.04085684008e-05 0
0.000108924126573 -2.10638067132e-05 0
-0.000197543157323 -0.000256273458012 0
-0.000143650974737 -0.000945873265704 0
0.000236836415135 -0.000667206641945 0
0.000132683716824 -0.000170526956829 0
-3.88111171261e-05 1.53986032872e-05 0
4.53560182768e-05 1.38863824171e-05 0
-7.40557083445e-05 -9.6009853905e-05 0
-0.000190118090082 -0.000680088432856 0
0.000137535250967 -0.0015494025199 0
0.000128652332902 -0.000470431795656 0
-3.5066983308e-05 -1.61754065897e-05 0
4.19997702349e-05 -1.73951504396e-05 0
-3.49706519672e-05 -0.000246461381263 0
-0.000193512742066 -0.00145520301638 0
0.000152376212034 -0.00101001790622 0
2.3383442358e-05 -7.85359489231e-05 0
7.09389446676e-06 -0.000254459445067 0
9.50012959758e-06 -0.000474835002388 0
-4.23312626783e-05 -0.00237289312101 0
-1.24063068925e-05 2.97182525975e-05 0
1.96321079049e-05 2.76529844505e-05 0
8.61530458128e-05 5.99541682342e-06 0
-8.13947035445e-05 7.2994814692e-06 0
7.60366589356e-06 -6.19528542978e-05 0
0.000201758725423 -0.000209502618573 0
-7.50172500283e-06 2.9426776721e-06 0
1.39502438605e-05 2.10820002176e-06 0
-2.36756644009e-05 -0.000876377170832 0
0.000178111273448 -0.00186247066175 0
0.000102265085906 -0.000795553396925 0
-0.000226129474102 -0.000498723188681 0
3.14518413914e-05 -0.00014819500214 0
-0.000152274571062 -8.94182562178e-05 0
-2.4067707987e-05 -0.00065208633802 0
0.000157855688024 -8.31273000334e-05 0
-3.27812233688e-05 -0.000150223691751 0
-5.80275919559e-06 -3.69411085463e-05 0
-5.14367795545e-06 1.65354250538e-05 0
1.24890189405e-05 1.50497261644e-05 0
0.000218861244275 -0.000334497537568 0
-6.61295819363e-05 -0.000412415714101 0
1.26967613048e-05 -2.61848038394e-05 0
0.000109603145124 -6.42401781421e-05 0
-8.60915980387e-05 -0.00152536682087 0
-0.000152330012077 -0.000397384216911 0
-8.33247212992e-05 -8.11020165256e-06 0
8.52686586483e-05 -8.95691523752e-06 0
0.000146452144158 -0.000344883993502 0
-0.000170445217599 -0.000163630522349 0
-5.52218232686e-05 -0.000446161814839 0
8.1026863463e-05 -0.000298416508321 0
-0.000105814338942 -0.00198595637736 0
-6.76240721461e-05 -1.85644792847e-07 0
7.47621060911e-05 -2.50060903512e-06 0
-2.24841197259e-05 -0.00121057798723 0
-4.00154716255e-05 2.88618439023e-05 0
4.65078792474e-05 2.67135714892e-05 0
-3.53462951524e-05 -8.12358591054e-05 0
-8.87627213077e-05 -4.26871756257e-05 0
-0.00012211193418 -3.71756355109e-05 0
-0.000133364523911 -7.10275100352e-05 0
0.000135082466495 -0.00257996568733 0
0.000105856315456 -0.000661368327683 0
8.79056262059e-05 -0.00119356525429 0
-4.34842149649e-06 -1.43015375237e-05 0
0.000240811061018 -0.000989093626646 0
-0.000122801783176 -0.000194517804449 0
-0.000222738145161 -0.00104807568448 0
5.52042528268e-05 -0.000103119409104 0
6.39580320658e-05 -0.000141232098985 0
-8.05731897765e-05 -0.000213620903379 0
1.82606931408e-05 -1.068353511e-05 0
-0.00013872375045 -0.000283619642307 0
0.000204114298769 -0.000732624832131 0
0.000123556785144 -0.000286932643766 0
7.86590586089e-05 2.15680953515e-06 0
-7.56065192433e-05 3.39908941769e-06 0
0.000143826007393 -0.00041942906172 0
0.000104000826153 -0.000217651837073 0
-8.32639112449e-05 -0.00284967665663 0
7.07260407137e-05 1.8660117976e-05 0
-6.51445649676e-05 2.06563823361e-05 0
-0.000151761125851 -0.000874994655446 0
4.27600382602e-05 -5.19546087916e-05 0
0.000121046462367 -3.28640445302e-05 0
-0.00010901071476 -0.000297790334777 0
0.00019307647767 -0.000178546500803 0
-3.65881613274e-05 -0.0016669724109 0
7.20397588434e-06 7.08513087636e-06 0
-1.76511804745e-06 5.13835530845e-06 0
-1.28462051174e-06 3.78167780341e-05 0
8.82326628785e-06 3.54591849461e-05 0
6.20908400185e-05 -4.76554828236e-05 0
7.97474619528e-05 -1.94700826914e-05 0
0.00022038889199 -0.00136803013888 0
4.09271321849e-05 -0.00123242698719 0
-0.000223857503623 -0.000496411859344 0
0.000225081613645 -0.000372985925748 0
-5.08614347978e-05 -0.000155851476452 0
0.00013382962652 -7.71915539214e-05 0
-0.00018555272457 -0.00103184335463 0
1.75424803387e-06 2.55116304284e-05 0
5.83398318797e-06 2.36232091643e-05 0
5.93713477455e-05 -0.000384113766921 0
-3.91804715058e-05 3.91025830074e-06 0
4.57331060351e-05 2.93395317469e-06 0
-4.07587455516e-05 -4.40623450606e-05 0
0.000169031809995 -0.000881066370838 0
-0.000161544198429 -0.000567467855179 0
-0.000158046853983 -0.000553647296715 0
-0.000187029369307 -0.000154645045884 0
-2.51735728779e-05 -2.77445878183e-05 0
0.000156755985485 -0.00019763155871 0
-6.32685281988e-05 1.26360963622e-05 0
6.91796930065e-05 1.11446315682e-05 0
-3.83466721937e-05 -5.17564794425e-05 0
-7.01770819196e-05 -0.000122039243354 0
-1.40683885696e-05 -0.000100454331064 0
8.96979337098e-05 -0.000150281401425 0
-9.28750802639e-06 -5.33834765193e-06 0
0.000150862881592 -0.0001085910268 0
-0.000129754968803 -0.00010884640434 0
-8.57818072128e-05 -0.00065964092932 0
0.00013096759939 -0.00198807597678 0
-9.44821321942e-05 -5.24462599002e-06 0
9.84580808907e-05 -5.87533041444e-06 0
4.6881388354e-05 -0.000362289307666 0
0.000203338274407 -0.000471257222832 0
-2.22547345826e-05 2.19736132514e-05 0
2.92224068587e-05 2.02225993824e-05 0
7.72220545699e-05 -9.14935525588e-05 0
0.000180564342305 -0.000605456741551 0
-0.000216345353702 -0.000290603157451 0
0.000133721940392 -5.36099695077e-05 0
-3.62743208036e-05 -0.000773064902729 0
0.000133191062363 -0.000697065648392 0
-0.000222817556897 -0.000753273477991 0
-9.42733497942e-06 -8.97309700124e-06 0
8.18019541039e-05 1.02204318146e-05 0
-7.73906912868e-05 1.20750845812e-05 0
-2.00104281186e-05 1.16828062754e-05 0
2.78687388548e-05 1.04972674126e-05 0
-1.69578378328e-05 -0.000354737554596 0
-0.00015874733364 -0.00194587861771 0
-2.43748487486e-05 3.62895034752e-05 0
3.129014636e-05 3.39193663445e-05 0
0.000116680165344 -0.00155842074999 0
-6.83083533787e-05 -1.58798658565e-05 0
0.000170099627496 -0.00115152091654 0
-0.00012221260651 -5.10965360757e-05 0
8.99392218336e-05 -3.35213473311e-05 0
3.48910428842e-05 -0.000504674279361 0
-0.000100471300537 -0.00147832963584 0
3.17690803273e-05 -2.83106001227e-05 0
-0.000233539245786 -0.000744350841194 0
0.000175367335431 -0.0005206807135 0
6.29899177918e-06 -0.00321534794227 0
2.96553154911e-05 -0.00217932647669 0
4.66776709807e-06 1.60119356914e-05 0
2.93442811279e-06 1.44849720116e-05 0
6.01877907397e-05 -7.2385852705e-05 0
0.000118202957845 -9.3121367327e-05 0
-0.000148533163254 -0.000414723539314 0
1.62101385059e-05 -2.29640966375e-06 0
-9.36010813214e-05 -0.000172588755113 0
-0.000117227901056 -0.000272447392181 0
2.47779686932e-05 -7.30713241143e-06 0
-0.000194648366531 -0.00135748825097 0
-7.00772952486e-05 -1.65416182627e-05 0
1.63832865362e-05 -0.000209273580165 0
0.000154562430897 -0.0013947355247 0
-0.000186547130933 -0.000717779984726 0
7.66447203385e-05 -1.62688689182e-05 0
-4.11853710506e-06 -0.00184450992265 0
-0.000115926651963 -0.000500475022734 0
-4.51546946312e-05 -2.40929439229e-06 0
4.65898578289e-05 -2.85973250682e-06 0
-1.17957907027e-05 -3.88514606668e-05 0
2.27002529718e-05 -4.4140380752e-05 0
0.000177954787111 -0.000258373919537 0
-8.78127083528e-05 -3.39787055093e-05 0
3.29767019164e-05 -0.000852592611276 0
-9.69244137177e-05 -0.00113750250111 0
8.53070691732e-05 -0.000220793354785 0
-0.00017329094941 -0.000158577172848 0
-1.05259709285e-05 -0.000104895623168 0
0.000212131519215 -0.0008463297385 0
-5.14908450083e-05 1.9291941219e-05 0
5.76553555879e-05 1.7558206727e-05 0
-0.000193768837383 -0.000310656552413 0
1.73452607303e-05 -0.000179920062028 0
0.000143263449023 -0.000303368009251 0
-8.15001309071e-05 2.26602014029e-06 0
3.33526434607e-05 -0.00195007082888 0
8.67805458318e-05 1.10229563936e-06 0
6.08961864845e-05 2.64384374602e-05 0
-5.494339743e-05 2.87774468171e-05 0
-3.16676350908e-05 -0.00032201320523 0
1.14324346871e-05 -2.11521884127e-05 0
-1.35460054652e-05 -6.0260998327e-05 0
-0.000115780423674 -0.000125621251998 0
-0.000182325188909 -0.00119246711429 0
0.000176947826488 -0.000120545275226 0
8.80423261029e-07 -0.00019474513261 0
6.10023602403e-05 -7.0669240088e-06 0
0.00023837341862 -0.000473282638228 0
-0.000109600993371 -2.21319250127e-05 0
-4.68826705878e-05 -2.77028637197e-06 0
4.86093838168e-05 -3.79942877993e-06 0
-0.000114145351757 -7.719805473e-05 0
-9.78206691574e-05 -7.12708337209e-05 0
1.9294052691e-06 3.17809385381e-05 0
5.68974626131e-06 2.96458772007e-05 0
-1.28525425249e-05 4.05370625388e-05 0
2.00725728054e-05 3.80585757124e-05 0
-7.09022266767e-05 -0.000204008181283 0
-3.60544534714e-05 -6.39726162193e-05 0
-0.000146460268875 -7.07205848483e-05 0
-0.000204001264196 -0.000352351268123 0
-7.9638493372e-05 -0.0011611045716 0
7.0417890047e-05 -0.000211110051215 0
0.000108712718528 -3.72557060069e-05 0
-5.25433771068e-05 8.60117443989e-06 0
-6.50028415265e-05 -8.45453200531e-05 0
5.88185008759e-05 8.00470143667e-06 0
0.000128022598954 -0.000107797592274 0
0.000223130051559 -0.000948497975265 0
-0.000144029318 -0.000263076693279 0
2.59968975705e-05 -0.00156468857261 0
-0.00017896564152 -0.000517607108944 0
-2.11041824407e-05 -1.84121008755e-05 0
-9.4351348354e-06 2.31022698969e-05 0
1.67169331207e-05 2.13197262415e-05 0
0.000219784466211 -0.000737360271456 0
0.00022558470356 -0.00105567781982 0
0.000166447691523 -0.000386513053997 0
-2.27843501823e-05 2.86684559521e-05 0
2.97427829983e-05 2.66235211736e-05 0
-8.52146200063e-05 2.97227192064e-06 0
8.90652564634e-05 1.8416158659e-06 0
-2.87667509953e-05 -0.00312567365942 0
0.000200811819773 -0.00170691531919 0
8.94617882739e-05 -0.000122517953756 0
2.45349867611e-06 4.26075677911e-05 0
5.19984756614e-06 4.00886842959e-05 0
0.000242009406271 -0.00075324653398 0
-0.000129902147935 -0.000838893954246 0
-4.06216719682e-05 -4.12106735294e-05 0
-4.22184813421e-05 -5.22502823223e-06 0
0.000216230838889 -0.000251513325959 0
-6.62043035843e-06 1.11410996543e-05 0
1.1314669221e-05 -0.000136125340056 0
1.50753912782e-05 9.34559150439e-06 0
0.000122247924464 -0.000183076121063 0
0.000217531909219 -0.00125345388168 0
-5.5836698424e-05 -0.000254698038843 0
-0.000225480986889 -0.00089466750823 0
0.000103259658566 -0.000157876238399 0
-9.55680930171e-05 -0.000139461205094 0
-2.1779944049e-05 -1.11693100199e-06 0
0.000111162191851 -1.86295670628e-05 0
-1.10285124503e-05 -5.80075059637e-07 0
-9.36737445793e-05 -0.000344723029657 0
-0.000155987207665 -0.00166525703964 0
-0.000166045858223 -0.000258763810552 0
3.48152370601e-05 -2.08936704064e-05 0
1.72519364593e-05 -0.00058041157457 0
7.62166033246e-05 -0.00242702448485 0
-0.000175985839018 -0.00113687387776 0
2.17460863946e-05 -8.41399029132e-05 0
0.000195644527939 -0.00129134134416 0
-0.000215385007111 -0.00123133547154 0
-3.53618369484e-05 3.57744624579e-05 0
4.19718120032e-05 3.33505096165e-05 0
-5.36410745324e-05 -0.000515107377083 0
0.000218254889434 -0.000515604662963 0
5.23453488291e-05 -7.63830751189e-06 0
-6.24979827227e-05 -6.57989146269e-05 0
4.87006967523e-05 -4.01638248848e-05 0
-8.32505367062e-05 -1.03195533262e-05 0
-1.19319674065e-05 -1.85604361426e-05 0
-0.000227795710702 -0.000383262393101 0
-7.89071017934e-05 -0.000210460993461 0
-5.47646277448e-05 -2.62672799185e-05 0
-4.82435418587e-05 -6.93666845748e-06 0
0.000157237627822 -0.000260760782978 0
0.000187477868876 -0.000356625787813 0
7.68017397159e-05 -0.00250226532208 0
6.37159003731e-05 -0.000281722327473 0
-3.76188742607e-05 2.25670531807e-05 0
4.42178111488e-05 2.07448364084e-05 0
7.86817191319e-05 4.64296651603e-06 0
-7.51425181261e-05 6.40387416825e-06 0
9.06114569715e-05 -1.17752951717e-05 0
-8.15909382927e-06 -0.000986987541976 0
-0.00027059631304 -0.0010297414512 0
1.17535326946e-05 1.11696686273e-05 0
-4.28782631223e-06 9.59075002436e-06 0
-0.000136290954265 -5.77321770972e-05 0
7.79365078251e-05 -9.51917265745e-05 0
-0.000268148150485 -0.0013915115609 0
1.96979755167e-06 -5.80807505653e-06 0
5.57831229138e-05 -0.000364625301308 0
-0.000148193480996 -0.00213610708737 0
-0.000173610413337 -0.000357855590642 0
7.8313324043e-06 2.02902216165e-05 0
-1.15295683039e-07 1.85973530013e-05 0
-2.40738190768e-05 -0.00020666279997 0
9.08544176265e-05 -3.98710860184e-05 0
0.000210036723659 -0.000613647322669 0
0.000193748753914 -0.000343137096032 0
0.000131788931976 -5.18296051248e-05 0
4.373818664e-05 -0.000105779003268 0
-0.000208197912217 -0.000483197575375 0
-0.000165187152372 -0.000125028883419 0
3.14366202359e-05 -2.65097494488e-05 0
8.66309178848e-05 -0.000484541932099 0
-3.89729046603e-05 -0.00273632035105 0
5.2731885096e-06 -2.7537317118e-06 0
-0.000167835890738 -0.00176400575926 0
1.09531735539e-05 -3.83218597633e-05 0
5.86843534945e-05 -2.7947265833e-05 0
4.00363994656e-05 -0.000640088260691 0
9.86359060627e-05 -8.10831480578e-06 0
-5.78474809482e-05 -6.65665343278e-05 0
-0.000116947425423 -0.000734088152949 0
0.000162959898855 -0.000596296946434 0
-0.000204584286968 -0.000225229741313 0
2.1902164366e-05 -0.00026213890685 0
-8.16894531266e-05 -0.000107623400975 0
3.04873917234e-05 -1.94881278636e-07 0
-9.34607432536e-05 -6.93186497276e-06 0
0.000115765130841 -0.000607278744464 0
-0.000127849584412 -0.000216022001394 0
-0.000112153047008 -0.000394812685037 0
6.93556140031e-05 2.3473210312e-05 0
-6.38294513696e-05 2.5886896677e-05 0
6.45723076357e-05 -0.00104088799934 0
0.000105381761476 -0.000363971585591 0
6.92403324706e-05 -0.000174244755283 0
0.000176062447721 -0.000161903129402 0
-9.67944973352e-05 -1.86332682706e-05 0
2.54988864501e-05 -8.58512717179e-06 0
-7.46003928314e-05 -3.58005029676e-05 0
0.000151484281622 -0.00221018242637 0
7.62087001135e-05 -0.000789714325567 0
4.68057242249e-05 -0.00101555309094 0
6.1143741888e-05 -6.09396106042e-05 0
-2.19025330856e-06 -0.000167432351813 0
-2.92825372233e-07 2.02234253336e-05 0
3.33754758603e-05 -6.49487938105e-05 0
7.80001721716e-06 1.85512302676e-05 0
5.45742204355e-05 -7.27652899668e-05 0
0.000221404572001 -0.000472217381005 0
3.88439378845e-06 -0.00327127333614 0
-5.47380450113e-05 -0.000763761916209 0
-9.19877328295e-05 -2.73040428106e-05 0
-0.000194756932211 -0.000414634231546 0
0.000229933570653 -0.000617308389125 0
9.64969433089e-05 -0.000173421392357 0
0.00010067447166 -0.000125233910463 0
-0.000126943832399 -0.000475223593505 0
6.20520145419e-05 -0.0014654546481 0
3.02338461013e-05 -0.000117457795732 0
6.92812646735e-07 3.82999339906e-07 0
-0.000131589886157 -7.84112209294e-05 0
-0.000190133854685 -0.00192845016742 0
-0.000119491183202 -3.38705623924e-05 0
7.71987293849e-05 -3.68476956751e-05 0
6.61262720022e-06 -1.50966513088e-05 0
2.58775800983e-06 1.25495786295e-05 0
5.07960801252e-06 9.9983155725e-06 0
0.000157774261111 -0.000956494044147 0
6.0581384704e-06 3.64006796139e-05 0
1.6971768843e-06 3.40953238292e-05 0
-0.000252965857781 -0.000815765807379 0
1.80360923508e-05 1.24720511267e-06 0
-7.23257424137e-05 1.34947408726e-05 0
7.76587782197e-05 1.19124357162e-05 0
0.000173046065834 -0.00012124338685 0
-0.000104955201591 -0.000358307438939 0
-5.05200330152e-06 -7.90815732759e-05 0
2.89730233009e-05 -3.78083132251e-05 0
0.00011247332094 -0.00133764443861 0
-6.29091515984e-05 -0.00011084963248 0
5.98477662068e-05 -0.000616428913991 0
-0.000172359338305 -0.0012036045912 0
-0.000218609608002 -0.000632323311584 0
-5.5885779827e-05 -0.000424264321426 0
-9.53956293619e-05 -0.00201476351186 0
-5.06162670415e-06 4.40411139792e-05 0
1.24961094879e-05 4.14662206094e-05 0
-0.000167359369595 -0.0001931532556 0
-4.11176872192e-05 -0.000104267062551 0
-1.67925053235e-05 1.69249007618e-05 0
0.000291316001751 -0.000882411047784 0
2.39688241069e-05 1.54094122271e-05 0
-2.25704321475e-05 -3.71871221045e-05 0
0.00016771704558 -0.00211955696834 0
-0.000165097861705 -0.000106174398455 0