# vtk DataFile Version 2.0
Generated with Solid Solver
ASCII
DATASET UNSTRUCTURED_GRID
POINTS 856 float 
0.0 3.5 0.0
1.6 3.5 0.0
1.6 4.0 0.0
0.0 4.0 0.0
0.0695652173912 3.5 0.0
0.139130434782 3.5 0.0
0.208695652174 3.5 0.0
0.278260869565 3.5 0.0
0.347826086956 3.5 0.0
0.417391304347 3.5 0.0
0.486956521738 3.5 0.0
0.556521739129 3.5 0.0
0.62608695652 3.5 0.0
0.695652173911 3.5 0.0
0.765217391302 3.5 0.0
0.834782608694 3.5 0.0
0.904347826085 3.5 0.0
0.973913043477 3.5 0.0
1.04347826087 3.5 0.0
1.11304347826 3.5 0.0
1.18260869565 3.5 0.0
1.25217391304 3.5 0.0
1.32173913043 3.5 0.0
1.39130434783 3.5 0.0
1.46086956522 3.5 0.0
1.53043478261 3.5 0.0
1.6 3.56430812594 0.0
1.6 3.62270835268 0.0
1.6 3.6757434324 0.0
1.6 3.7239062376 0.0
1.6 3.76764438351 0.0
1.6 3.80736436404 0.0
1.6 3.84343531219 0.0
1.6 3.87619247117 0.0
1.6 3.90594026707 0.0
1.6 3.93295517284 0.0
1.6 3.95748825478 0.0
1.6 3.97976750982 0.0
1.58000000587 4.0 0.0
1.55999996633 4.0 0.0
1.54000002214 4.0 0.0
1.51999997198 4.0 0.0
1.50000000455 4.0 0.0
1.48000000216 4.0 0.0
1.45999997931 4.0 0.0
1.44000002484 4.0 0.0
1.41999997044 4.0 0.0
1.40000002096 4.0 0.0
1.37999999963 4.0 0.0
1.35999999626 4.0 0.0
1.34000002179 4.0 0.0
1.31999997343 4.0 0.0
1.3000000318 4.0 0.0
1.27999998783 4.0 0.0
1.26000000202 4.0 0.0
1.24000001295 4.0 0.0
1.21999998074 4.0 0.0
1.20000003685 4.0 0.0
1.17999998163 4.0 0.0
1.16000001473 4.0 0.0
1.14000000469 4.0 0.0
1.11999999139 4.0 0.0
1.10000003625 4.0 0.0
1.07999997877 4.0 0.0
1.06000002802 4.0 0.0
1.04000000338 4.0 0.0
1.02000000764 4.0 0.0
1.00000002986 4.0 0.0
0.979999980237 4.0 0.0
0.960000035522 4.0 0.0
0.939999990881 4.0 0.0
0.920000014619 4.0 0.0
0.900000017903 4.0 0.0
0.879999986222 4.0 0.0
0.860000037278 4.0 0.0
0.839999982352 4.0 0.0
0.820000022783 4.0 0.0
0.800000000002 4.0 0.0
0.779999977222 4.0 0.0
0.760000017652 4.0 0.0
0.739999962726 4.0 0.0
0.720000013782 4.0 0.0
0.699999982101 4.0 0.0
0.679999985385 4.0 0.0
0.660000009123 4.0 0.0
0.639999964482 4.0 0.0
0.620000019766 4.0 0.0
0.599999970141 4.0 0.0
0.57999999236 4.0 0.0
0.559999996622 4.0 0.0
0.539999971983 4.0 0.0
0.520000021235 4.0 0.0
0.499999963756 4.0 0.0
0.480000008612 4.0 0.0
0.459999995315 4.0 0.0
0.439999985272 4.0 0.0
0.420000018371 4.0 0.0
0.39999996315 4.0 0.0
0.380000019261 4.0 0.0
0.359999987052 4.0 0.0
0.339999997986 4.0 0.0
0.320000012172 4.0 0.0
0.299999968206 4.0 0.0
0.280000026575 4.0 0.0
0.259999978213 4.0 0.0
0.240000003742 4.0 0.0
0.220000000371 4.0 0.0
0.199999979041 4.0 0.0
0.180000029557 4.0 0.0
0.159999975162 4.0 0.0
0.140000020694 4.0 0.0
0.119999997846 4.0 0.0
0.0999999954514 4.0 0.0
0.0800000280232 4.0 0.0
0.0599999778571 4.0 0.0
0.0400000336732 4.0 0.0
0.0199999941324 4.0 0.0
0.0 3.97976750982 0.0
0.0 3.95748825478 0.0
0.0 3.93295517284 0.0
0.0 3.90594026707 0.0
0.0 3.87619247117 0.0
0.0 3.84343531219 0.0
0.0 3.80736436404 0.0
0.0 3.76764438351 0.0
0.0 3.7239062376 0.0
0.0 3.6757434324 0.0
0.0 3.62270835268 0.0
0.0 3.56430812594 0.0
0.249757905714 3.75212552678 0.0
1.35000000902 3.74954526597 0.0
0.488714190926 3.75947467509 0.0
0.727445026698 3.75983525744 0.0
0.962900270309 3.76055270856 0.0
1.17161197633 3.81755162829 0.0
0.130754031542 3.86878251069 0.0
1.46924596846 3.86878251069 0.0
0.369913852535 3.84868154079 0.0
0.603236233099 3.84763103091 0.0
0.843402107212 3.84736931152 0.0
1.05041705507 3.86611282467 0.0
0.250539323282 3.87785527135 0.0
1.34882231626 3.87787871523 0.0
0.468661896861 3.89189320321 0.0
0.704258117309 3.89639128976 0.0
0.94963922804 3.89654080835 0.0
1.25000000748 3.89875296068 0.0
1.12879020517 3.91059303421 0.0
0.548928478218 3.91905583534 0.0
0.7889268651 3.91906062813 0.0
0.0712526194949 3.93011432704 0.0
1.52874738051 3.93011432704 0.0
1.4740071133 3.74293106904 0.0
0.125992886699 3.74293106904 0.0
0.329956761073 3.92118145982 0.0
1.09412206522 3.66725831207 0.0
0.190000004299 3.92542384899 0.0
1.41098423528 3.92728100222 0.0
0.629999992124 3.92414139091 0.0
0.87000001175 3.92414140592 0.0
0.853391941071 3.71944243214 0.0
0.610032822379 3.72536074396 0.0
0.41090315692 3.92892991009 0.0
0.370435019193 3.7251305208 0.0
1.01000001875 3.93130199947 0.0
1.22823348571 3.68694249365 0.0
1.18894423177 3.93487447818 0.0
1.31063576122 3.93502724255 0.0
0.129927636183 3.94112156482 0.0
1.47007236382 3.94112156482 0.0
1.07646504896 3.76194504855 0.0
1.07000000339 3.94017719684 0.0
0.270000002394 3.93875928556 0.0
1.26759839792 3.80243333593 0.0
0.770332946246 3.83880063275 0.0
0.530342720064 3.83880306325 0.0
0.189898092614 3.63474333735 0.0
1.4101772205 3.6313147556 0.0
0.942883893479 3.62966700486 0.0
0.510631148905 3.62429064243 0.0
0.754670889573 3.63369080225 0.0
0.489999986184 3.94463854908 0.0
0.732500655853 3.9452729887 0.0
0.193627936713 3.81528931126 0.0
1.40183871842 3.81461096917 0.0
0.928721275957 3.94715071018 0.0
0.0604617896557 3.86281267064 0.0
1.53953821034 3.86281267065 0.0
1.25036152032 3.94913766834 0.0
0.30096552553 3.81141484704 0.0
0.297089357677 3.66359682597 0.0
0.394212311705 3.61316974741 0.0
0.831051681923 3.94633984116 0.0
0.592085081305 3.94901138542 0.0
0.669405291514 3.95495209798 0.0
1.3611855791 3.94637621082 0.0
0.928496698914 3.82436133158 0.0
0.444093171593 3.8271987226 0.0
0.683378885111 3.8234871366 0.0
0.372430737197 3.95235208784 0.0
1.19348789949 3.87019408468 0.0
1.15124363553 3.95467023547 0.0
0.229287653728 3.96038323295 0.0
0.646635519079 3.61231195482 0.0
0.986819459779 3.84973028271 0.0
1.11214815433 3.84770266014 0.0
1.50610225987 3.6604664246 0.0
0.0938977401332 3.6604664246 0.0
0.531976760298 3.96138656711 0.0
0.451361041931 3.96112773652 0.0
0.771976835888 3.96138886125 0.0
1.53311213884 3.79435404356 0.0
0.066887861162 3.79435404356 0.0
0.970836553066 3.9620233382 0.0
0.311702426505 3.96111572975 0.0
1.31698094247 3.6658628839 0.0
1.11177843379 3.95948388532 0.0
1.15003411964 3.72957279566 0.0
0.890058924798 3.96133576813 0.0
0.169108880648 3.96040269401 0.0
1.42850737314 3.96465656678 0.0
0.0426347993992 3.9610175717 0.0
1.5573652006 3.9610175717 0.0
1.28993057938 3.85776473604 0.0
1.34652710411 3.82072629166 0.0
0.897316840472 3.87585124602 0.0
0.814484972147 3.79171515708 0.0
0.573290986674 3.7879873938 0.0
1.02164717476 3.69631051635 0.0
0.41798215839 3.87594988344 0.0
1.18469655214 3.6045863568 0.0
0.657426542805 3.87734841349 0.0
0.0893439701605 3.9657484063 0.0
1.51065602984 3.9657484063 0.0
0.850202761783 3.61862953305 0.0
0.185775988195 3.86980628439 0.0
1.41422401181 3.86980628439 0.0
0.305957202498 3.87340573583 0.0
0.629999992124 3.96272981278 0.0
0.686026569054 3.68766751472 0.0
1.03220081924 3.96436031967 0.0
0.445441337222 3.69456289967 0.0
1.33308537187 3.96770341358 0.0
1.0249206042 3.60512275769 0.0
0.128645746764 3.81165411571 0.0
1.47135425324 3.81165411571 0.0
1.29077706219 3.96625078806 0.0
1.21302440104 3.96491551313 0.0
0.373320303365 3.89968789902 0.0
0.409457647309 3.96502881891 0.0
1.39076199588 3.96614348387 0.0
1.2156032112 3.76624353786 0.0
0.383301616321 3.78976397621 0.0
0.593246012246 3.8948346816 0.0
0.833004203108 3.89475034107 0.0
0.187583903859 3.70688411961 0.0
1.41241609614 3.70688411961 0.0
1.08573330585 3.89673930733 0.0
1.04303343403 3.81530385578 0.0
0.103644791029 3.90516202075 0.0
1.49635520897 3.90516202075 0.0
1.23586605501 3.85112068621 0.0
0.921814270996 3.70213058021 0.0
0.532219762185 3.7029333087 0.0
1.28217045716 3.7375098981 0.0
0.779621693208 3.70806977531 0.0
0.998890529268 3.88397615296 0.0
0.659406618131 3.76469373474 0.0
0.230043799244 3.91599372373 0.0
1.53690667654 3.72637971331 0.0
0.0630933234627 3.72637971331 0.0
0.153148105836 3.90639761309 0.0
1.4478092366 3.90500627713 0.0
0.512139854501 3.90538519137 0.0
0.750930702019 3.90340708 0.0
0.0409150717909 3.90046251393 0.0
1.55908492821 3.90046251393 0.0
0.702096631597 3.96656725638 0.0
0.246204062466 3.82734823738 0.0
0.872012730916 3.80079945556 0.0
0.313419524246 3.75328100976 0.0
1.26305184675 3.57725747237 0.0
1.04341944162 3.90846795586 0.0
0.697725469476 3.93030230037 0.0
0.27003033309 3.96477332623 0.0
0.632456188669 3.80120134001 0.0
0.55988813035 3.96676596088 0.0
0.798125231733 3.9668778541 0.0
0.861599835739 3.96514225679 0.0
0.130196681328 3.96566148827 0.0
1.46980331867 3.96566148827 0.0
0.337465698618 3.96873835045 0.0
1.10690030388 3.57445060302 0.0
1.07038768144 3.96631210642 0.0
0.201908835349 3.96783542832 0.0
1.17640357301 3.96795841043 0.0
0.482502283815 3.8454083814 0.0
1.37723451734 3.90442225885 0.0
0.722497886517 3.84543272537 0.0
0.254749007352 3.57960328731 0.0
0.449206209982 3.91785378051 0.0
0.907803563184 3.91575967116 0.0
0.997592319531 3.96832081731 0.0
1.3597087328 3.59165409162 0.0
0.797785363131 3.87112617582 0.0
0.557788209884 3.87112741711 0.0
0.133223775006 3.57024633267 0.0
1.46673023696 3.57019175074 0.0
0.296361477075 3.90524448543 0.0
1.29555045611 3.90092076583 0.0
1.11951450862 3.79592056714 0.0
0.341558640376 3.57546927501 0.0
0.974255514016 3.92370320024 0.0
0.664786082443 3.91707165091 0.0
1.1442561544 3.86460464827 0.0
0.430695849932 3.74774845865 0.0
1.22439218721 3.92431164104 0.0
0.917330800791 3.76752811157 0.0
0.0995806821614 3.83759752714 0.0
1.50041931784 3.83759752714 0.0
0.586492545959 3.6571718064 0.0
1.16809690663 3.90376349956 0.0
0.490525946651 3.9687439861 0.0
0.170108846494 3.77025381333 0.0
0.726723612771 3.96611364881 0.0
1.42998397347 3.77014833166 0.0
1.55978981314 3.82099569701 0.0
0.0402101868575 3.82099569701 0.0
1.10043652243 3.92805072974 0.0
1.34111814411 3.91924529479 0.0
1.27430066613 3.93505265881 0.0
0.56431092584 3.57086686051 0.0
0.930516510487 3.96969091611 0.0
1.17713743504 3.67180033503 0.0
0.801256410508 3.5635758738 0.0
1.37979186382 3.84566323689 0.0
1.02277822921 3.7577258162 0.0
0.252009847995 3.68167957306 0.0
0.0497138210057 3.58866012032 0.0
1.55028617899 3.58866012032 0.0
0.466046622144 3.57331739513 0.0
0.343019074867 3.81481221655 0.0
0.0645235269233 3.96909610548 0.0
1.53547647308 3.96909610548 0.0
0.0310141903995 3.92955737583 0.0
[...]
POINT_DATA 856
VECTORS Displacement float
0.0 0.0 0
0.0 0.0 0
-1.75772403884e-05 0.000128007494359 0
3.28738675933e-05 0.000133256292301 0
0.0 0.0 0
0.0 0.0 0
0.0 0.0 0
0.0 0.0 0
0.0 0.0 0
0.0 0.0 0
0.0 0.0 0
0.0 0.0 0
0.0 0.0 0
0.0 0.0 0
0.0 0.0 0
0.0 0.0 0
0.0 0.0 0
0.0 0.0 0
0.0 0.0 0
0.0 0.0 0
0.0 0.0 0
0.0 0.0 0
0.0 0.0 0
0.0 0.0 0
0.0 0.0 0
0.0 0.0 0
9.16014212076e-05 -4.08457978287e-05 0
0.000155287347896 -3.02928493363e-05 0
0.000191021940151 -1.38140096299e-06 0
0.00019594800811 3.3402472586e-05 0
0.000182841541636 6.37793019698e-05 0
0.000158118450096 8.86702965561e-05 0
0.000127183188312 0.000106284476086 0
9.65375483061e-05 0.000117883585115 0
6.70670313585e-05 0.000124541768206 0
4.07705242995e-05 0.000127145671181 0
1.83017079495e-05 0.00012807937401 0
-8.60894993651e-07 0.000128098233111 0
-1.74872328578e-05 0.000111527395182 0
-1.73737278923e-05 9.57296682346e-05 0
-1.7798893091e-05 8.08951692867e-05 0
-1.9115727603e-05 6.70469472476e-05 0
-2.17280396881e-05 5.40278467333e-05 0
-2.59720454704e-05 4.11130820332e-05 0
-3.2084237347e-05 2.87274062216e-05 0
-4.02303106886e-05 1.53178615164e-05 0
-5.07570942723e-05 1.38563380698e-06 0
-6.32075066805e-05 -1.45629529574e-05 0
-7.84079511501e-05 -3.17620580129e-05 0
-9.59948243483e-05 -5.22437331243e-05 0
-0.000116815490133 -7.55635069133e-05 0
-0.000140182479395 -0.000102909985533 0
-0.000165633585105 -0.00013471754445 0
-0.000195118872114 -0.000171212015556 0
-0.000226588617014 -0.000213290169717 0
-0.000260396075387 -0.000262707137651 0
-0.000298079218234 -0.000319874007265 0
-0.000340282016444 -0.000384622814484 0
-0.00038403809655 -0.000460509952526 0
-0.000433009729445 -0.000547217763325 0
-0.00048246294248 -0.000646818286692 0
-0.000534493996996 -0.000761911547647 0
-0.000591889957911 -0.000890525553982 0
-0.00065024239118 -0.00103888371241 0
-0.000715396829228 -0.00120828179165 0
-0.000779735522668 -0.00140283571702 0
-0.000851260305856 -0.00162833531828 0
-0.000919052586463 -0.00188788613927 0
-0.000993531499467 -0.00218594300733 0
-0.00107323336355 -0.00254352017053 0
-0.00114445488506 -0.00296583261124 0
-0.00123173424111 -0.00349344131771 0
-0.00128601590661 -0.00414668436081 0
-0.00132491421759 -0.00507861521808 0
-0.00112496068233 -0.00659487835362 0
-0.000806693528584 -0.00788244616508 0
-0.000396205765922 -0.00864730051 0
4.63264905645e-05 -0.008899381932 0
0.00046654837083 -0.00865009708211 0
0.00088513876246 -0.00788764936276 0
0.00119333436468 -0.00660123672504 0
0.00136295505791 -0.00505086281233 0
0.00132782744266 -0.0041473962708 0
0.00125217243014 -0.00348012163332 0
0.00116846314626 -0.002959498714 0
0.00108722193147 -0.0025351453549 0
0.0010167200762 -0.00218160084529 0
0.0009389764673 -0.00188000858721 0
0.000867523999076 -0.00162090137227 0
0.000798368307788 -0.00139860274306 0
0.000733956894936 -0.00120515305621 0
0.000669747683983 -0.00103455112781 0
0.000610711644385 -0.000885234645714 0
0.000551171720424 -0.000755620618885 0
0.00049769961964 -0.000642413752226 0
0.000446465033743 -0.000544713386549 0
0.00040050215515 -0.000457933318518 0
0.000355737730268 -0.000382714663777 0
0.00031343020717 -0.000317652779863 0
0.000275985399636 -0.00026065502437 0
0.000240966013976 -0.000212067309299 0
0.000209404819791 -0.000169374210892 0
0.000180174096135 -0.000133046332585 0
0.000154755135865 -0.000101209864626 0
0.000131453727714 -7.43467379713e-05 0
0.000111427125085 -5.04957156392e-05 0
9.36656903895e-05 -3.01422717129e-05 0
7.82226912117e-05 -1.25421530284e-05 0
6.5846399329e-05 3.54678661778e-06 0
5.54015841613e-05 1.76540829883e-05 0
4.73016586466e-05 3.14644737084e-05 0
4.11768158023e-05 4.42023709553e-05 0
3.69655053546e-05 5.74296067869e-05 0
3.4379918833e-05 7.08028193642e-05 0
3.30817371552e-05 8.50200953326e-05 0
3.26659256855e-05 0.000100229834352 0
3.27833370154e-05 0.000116403546122 0
1.57822309317e-05 0.000133347583594 0
-3.79078392966e-06 0.000133334222364 0
-2.67121510669e-05 0.000132413309977 0
-5.35192521516e-05 0.000129834703542 0
-8.35808364278e-05 0.000123221565692 0
-0.000114953327899 0.000111675499754 0
-0.000146758985301 9.4101438094e-05 0
-0.000172623812264 6.92220881547e-05 0
-0.000187172919315 3.87115413593e-05 0
-0.000184016063879 3.50024418069e-06 0
-0.000150276729392 -2.62397887749e-05 0
-8.87177411662e-05 -3.81283313282e-05 0
-0.000265909607959 -5.48154529868e-05 0
0.000278202676647 -5.60756861985e-05 0
-0.000509115156006 -0.000669475318329 0
-0.000360836640589 -0.00241984142827 0
0.000598377277769 -0.00172484836563 0
0.000338894912001 -0.000448070521847 0
-9.8521744207e-05 3.908543965e-05 0
0.000111276595588 3.6188268434e-05 0
-0.000190859866778 -0.000253523136796 0
-0.000491478424777 -0.00177650203571 0
0.000326828567914 -0.00394049213924 0
0.000330226319744 -0.00123423208794 0
-8.89020654825e-05 -4.4257825214e-05 0
0.000102411689283 -4.69460332147e-05 0
-9.11056216759e-05 -0.000647735666478 0
-0.000481998831643 -0.00378431833586 0
0.000393949755536 -0.00265288022122 0
5.38957391962e-05 -0.000207776873777 0
1.29753285017e-05 -0.000669252811037 0
2.02225007669e-05 -0.00124755175215 0
-8.55297439837e-05 -0.0059000364976 0
-2.93926633808e-05 7.67690371645e-05 0
4.33975687522e-05 7.28573499618e-05 0
0.000219439579779 1.57647308719e-05 0
-0.000209948346582 1.82769052456e-05 0
2.19735592864e-05 -0.000164508887127 0
0.000515717918887 -0.000544588525009 0
-1.67570607314e-05 6.0907386073e-06 0
2.86567165011e-05 4.67007775538e-06 0
-7.48374779068e-05 -0.00230873063152 0
0.000413412749397 -0.00483510802448 0
0.000254073676691 -0.00203274223432 0
-0.000576905460656 -0.00128955438481 0
8.31328636325e-05 -0.000390547660668 0
-0.000393031520617 -0.000234939872624 0
-6.02109640698e-05 -0.00171737754674 0
0.000404969019612 -0.000217912894581 0
-9.24172308713e-05 -0.000395948310041 0
-2.28188949883e-05 -9.85143236973e-05 0
-1.0442662383e-05 4.2002071078e-05 0
2.46440940565e-05 3.92002932092e-05 0
0.000559659765804 -0.000872561189921 0
-0.000175885578471 -0.00108462786138 0
3.5699245289e-05 -7.0599949822e-05 0
0.000279092788901 -0.000169763608256 0
-0.000207764086046 -0.00387325225529 0
-0.000394978006009 -0.00104044064028 0
-0.000215411642067 -2.1744806527e-05 0
0.000219010601952 -2.35696251168e-05 0
0.000370533815068 -0.000886044643987 0
-0.000437282858087 -0.00042445781841 0
-0.000140675069894 -0.00114038572663 0
0.000210199506963 -0.000784428263298 0
-0.000243815358425 -0.00521916357898 0
-0.000173768166212 -1.93447091651e-06 0
0.00018857600829 -7.33309745762e-06 0
-3.58893806969e-05 -0.00321654069101 0
-0.00010167062874 7.46599245845e-05 0
0.000114362709212 7.05810786214e-05 0
-9.98145728554e-05 -0.000214951559573 0
-0.00022877025095 -0.000113611991793 0
-0.000315347452335 -9.80136934115e-05 0
-0.000343658989167 -0.000185429993501 0
0.000228619682931 -0.00646211449497 0
0.000266345733234 -0.00174110019434 0
0.000198553852511 -0.00316822203261 0
-1.92536946176e-05 -3.87979593657e-05 0
0.000602407920102 -0.00255911812849 0
-0.000317723972281 -0.000510848606882 0
-0.000560178511135 -0.00270498077189 0
0.000145775127578 -0.000272445848423 0
0.00016018087534 -0.000372049813252 0
-0.00021683575886 -0.000562346888844 0
5.0492372714e-05 -2.97901793084e-05 0
-0.000353206351151 -0.000728819392431 0
0.000521322221183 -0.00191516834534 0
0.000315738478066 -0.000753156535531 0
0.000201495874589 6.07595259965e-06 0
-0.000195426315674 8.51639581711e-06 0
0.000372262946557 -0.00110257207535 0
0.000271690743646 -0.000572650085255 0
-9.24840135209e-05 -0.00705692850294 0
0.000178468020762 4.95172315168e-05 0
-0.000167442168827 5.33386605219e-05 0
-0.000387202184168 -0.00231333026161 0
0.000113966170798 -0.000138253664807 0
0.000310717813557 -8.64990462421e-05 0
-0.000290272090171 -0.000783401236942 0
0.000494642425184 -0.000466966002885 0
-4.39623473633e-05 -0.00449670806695 0
2.18073041243e-05 1.7058862238e-05 0
-1.28103064363e-05 1.27908684448e-05 0
-2.2584254481e-07 9.80380835696e-05 0
1.48020670958e-05 9.35873922583e-05 0
0.000155004947804 -0.000126553332696 0
0.000201394235015 -5.22490932304e-05 0
0.000540308342858 -0.00354470292515 0
9.78570925154e-05 -0.00313546188322 0
-0.00057519083911 -0.00129246155624 0
0.000572687392735 -0.000965771820408 0
-0.000131221153725 -0.000410357402528 0
0.000343258561745 -0.000201170118261 0
-0.000478787725271 -0.00269538766858 0
7.70724713852e-06 6.56752944794e-05 0
6.95662900361e-06 6.20964144195e-05 0
0.000148988471989 -0.00098210655063 0
-9.95226573522e-05 8.70119183601e-06 0
0.000112236962575 6.90938811186e-06 0
-0.000103931514019 -0.000117507870444 0
0.000424093540509 -0.00232695827602 0
-0.0004097235155 -0.00145597388672 0
-0.000414419361551 -0.00145770862504 0
-0.000481690497759 -0.000403823152397 0
-7.37882426287e-05 -7.42552560572e-05 0
0.000399150036945 -0.000510281076588 0
-0.000162457916905 3.19904560469e-05 0
0.000174156018697 2.9102482586e-05 0
-0.000108025778898 -0.000137477947219 0
-0.000190656964293 -0.000322070289365 0
-3.49573547688e-05 -0.000265408929344 0
0.000235303629564 -0.00039605418677 0
-3.2416498635e-05 -1.50367277942e-05 0
0.000386185346969 -0.0002854528513 0
-0.000335139512403 -0.000286535065271 0
-0.000228491448063 -0.00173179533123 0
0.000288249300543 -0.00502583321579 0
-0.000244027106277 -1.46490495528e-05 0
0.000251919106639 -1.57536135877e-05 0
0.000118042944097 -0.000952025402407 0
0.000520110857787 -0.00123170843117 0
-5.52024450951e-05 5.6383494069e-05 0
6.8735458707e-05 5.30540924731e-05 0
0.000194567112427 -0.000241556832319 0
0.000454427370159 -0.0015548228181 0
-0.0005551351732 -0.000755032125673 0
0.000342388264138 -0.000141370289409 0
-9.27516462833e-05 -0.00197305795105 0
0.000344130000758 -0.0018302056088 0
-0.000564729522391 -0.00194178711329 0
-2.19147267155e-05 -2.5324943013e-05 0
0.000208446192263 2.75454251864e-05 0
-0.000199682175533 3.11341294959e-05 0
-4.93910449815e-05 2.91919979118e-05 0
6.52164072621e-05 2.70475179795e-05 0
-4.60790555239e-05 -0.000931750025604 0
-0.000362964108109 -0.00495780158188 0
-6.07309662252e-05 9.40989774768e-05 0
7.41801486846e-05 8.96179530451e-05 0
0.000248072833169 -0.00418440872527 0
-0.000175533559797 -4.33270794472e-05 0
0.000417860365127 -0.0029468329528 0
-0.000315532510183 -0.000135194941093 0
0.000231141114188 -8.75968743431e-05 0
8.94141768588e-05 -0.00132678898545 0
-0.00027163266528 -0.00390405484716 0
8.5578238487e-05 -7.6147061788e-05 0
-0.000595862199881 -0.00192970452993 0
0.000452711657096 -0.00136946145121 0
2.51418089582e-05 -0.00764552781792 0
7.16451438076e-05 -0.00582497161957 0
1.52754390772e-05 4.06297840244e-05 0
-5.89173128334e-07 3.77181383352e-05 0
0.000159257720332 -0.000191842117919 0
0.000302364851819 -0.000241522349762 0
-0.000392237328379 -0.00109107345809 0
4.52699631616e-05 -7.67546454384e-06 0
-0.00025148378863 -0.000454718898727 0
-0.000304040001969 -0.000714769495121 0
5.71902893599e-05 -2.03066540922e-05 0
-0.000477936417137 -0.00348245168145 0
-0.000181097898387 -4.34700421383e-05 0
4.2967212499e-05 -0.000550542922367 0
0.000394973763903 -0.0036683618247 0
-0.000485031075217 -0.00189335904526 0
0.000197105455623 -4.26170582218e-05 0
-1.14165275125e-05 -0.00465262222148 0
-0.000303081826509 -0.0013119258075 0
-0.000116838004474 -6.48101346812e-06 0
0.000119834075603 -7.38171812343e-06 0
-2.84021032688e-05 -0.000103880255038 0
5.19241239307e-05 -0.000117440819795 0
0.000455688851602 -0.000676704310319 0
-0.000226515400607 -8.88588628501e-05 0
9.28160844192e-05 -0.00224830836083 0
-0.000265186587444 -0.00299500901705 0
0.000216233610284 -0.000580402911574 0
-0.000447080645082 -0.000415400934693 0
-3.46133456976e-05 -0.00027701459841 0
0.00053080883347 -0.00217705636752 0
-0.000131680108387 4.94983414801e-05 0
0.000143766136013 4.61916289664e-05 0
-0.00049497662431 -0.000802648174056 0
3.88818183146e-05 -0.000473669482134 0
0.000373067386353 -0.000797556029254 0
-0.000210039505338 4.76944836257e-06 0
4.06671389358e-05 -0.00526605215598 0
0.000220556815989 2.46736641805e-06 0
0.000152456359262 7.01619220413e-05 0
-0.000140756202518 7.46159484107e-05 0
-8.72675533575e-05 -0.00084675501712 0
2.22537516325e-05 -5.69055125821e-05 0
-4.28961704538e-05 -0.000159848950896 0
-0.000296179715886 -0.000324381734224 0
-0.000449563570872 -0.00317757455623 0
0.000453678345372 -0.00031489890434 0
1.63770683723e-06 -0.000497682038896 0
0.000152315060262 -1.95697593625e-05 0
0.000607186313164 -0.00122937774148 0
-0.00028312787422 -5.88372218804e-05 0
-0.000121304433913 -7.22004901462e-06 0
0.000124786037454 -9.23651032477e-06 0
-0.000293301296547 -0.000200471496691 0
-0.000252380995636 -0.000188536518322 0
8.19220731567e-06 8.21723684836e-05 0
6.52993591369e-06 7.81337987428e-05 0
-3.0548153959e-05 0.000105207511093 0
4.45460580202e-05 0.000100531297323 0
-0.000180437338465 -0.000522548612781 0
-9.18413931759e-05 -0.000169724302326 0
-0.00037785724422 -0.000185444520401 0
-0.000525825453925 -0.000919867886106 0
-0.000199071558077 -0.00295839370446 0
0.000177876926678 -0.000540705221797 0
0.000277104417217 -9.88104330276e-05 0
-0.000134411601841 2.11745261829e-05 0
-0.000177532008207 -0.000223640660087 0
0.000146721265297 2.05314396142e-05 0
0.000326819135127 -0.000283800017279 0
0.000564954063652 -0.0024722009528 0
-0.00038266935811 -0.000692329950597 0
5.91457428282e-05 -0.00396549377918 0
-0.000463343693877 -0.00135358454103 0
-6.32700696191e-05 -4.96112673309e-05 0
-2.16383995421e-05 5.93311706316e-05 0
3.57400471465e-05 5.59488164272e-05 0
0.000563291635081 -0.00194375049218 0
0.000564476232094 -0.00279737995253 0
0.000426435409991 -0.00101269883854 0
-5.65732185993e-05 7.40403107937e-05 0
7.00961980713e-05 7.0164865256e-05 0
-0.00022010810943 7.09773430758e-06 0
0.000227783190588 4.88833955868e-06 0
-0.00015581915731 -0.00774674160581 0
0.000470568365034 -0.00438148641343 0
0.000235099632365 -0.000323274417267 0
9.58694587654e-06 0.000110612933869 0
5.19941826746e-06 0.000105865906706 0
0.000611666209437 -0.00195324744074 0
-0.000342899921476 -0.00220128939376 0
-0.000114165057426 -0.000109708914238 0
-0.000107495226311 -1.53917038521e-05 0
0.000552939748295 -0.000655394055907 0
-1.43605259146e-05 2.77501339968e-05 0
2.27733873264e-05 -0.000358888249521 0
3.15351437034e-05 2.39562811002e-05 0
0.000319986496585 -0.000482019479089 0
0.000533186472089 -0.00322302682839 0
-0.00015152460527 -0.000670071532548 0
-0.000574744865065 -0.00232348549701 0
0.000262192940719 -0.000406075585295 0
-0.000246971764457 -0.000367139020222 0
-5.41132804891e-05 -4.6148884754e-06 0
0.000284845382826 -4.93765081236e-05 0
-3.71367114159e-05 -2.37319475092e-06 0
-0.000244232212203 -0.000904468647215 0
-0.000370288160533 -0.00424261276049 0
-0.000429115518932 -0.000677741803698 0
9.37046725849e-05 -5.66161632235e-05 0
3.79249675538e-05 -0.00152579658809 0
0.00014685760979 -0.00603983215194 0
-0.000439158749111 -0.00291075292014 0
5.86207972837e-05 -0.000222693305084 0
0.000469787848824 -0.0034426064497 0
-0.000540716503486 -0.00318971792876 0
-8.94934383845e-05 9.28116910772e-05 0
0.000102393875515 8.82224645916e-05 0
-0.000141015501426 -0.00135523437595 0
0.000552466657483 -0.00133018514566 0
0.000134709505769 -1.99359689561e-05 0
-0.000160640743104 -0.000174419791888 0
0.000129726835706 -0.000107257971743 0
-0.000214467905224 -2.85317977745e-05 0
-2.85566558784e-05 -5.05660080022e-05 0
-0.000584552338587 -0.000996202679448 0
-0.000204513685988 -0.000553143728469 0
-0.000140291369688 -7.07278053009e-05 0
-0.000124793009797 -1.82961432956e-05 0
0.000410412783009 -0.000685776049579 0
0.000488082059769 -0.000937554090508 0
0.000211191783996 -0.00670409018267 0
0.000160733549694 -0.000740369106407 0
-9.53962589739e-05 5.80285504852e-05 0
0.000108290250916 5.45598940163e-05 0
0.000201153039093 1.30935371374e-05 0
-0.000194119095862 1.65189479185e-05 0
0.000230127472735 -3.17907010786e-05 0
-2.23210005771e-05 -0.00251584475088 0
-0.000696001671586 -0.00273280568562 0
3.38130244365e-05 2.78634489116e-05 0
-1.95912927502e-05 2.46855624099e-05 0
-0.000351910319015 -0.000152133961231 0
0.000205353123918 -0.000251642224499 0
-0.000660779874416 -0.00373817637347 0
-2.7600047936e-06 -1.63275952309e-05 0
0.000143005651215 -0.000958155678799 0
-0.000319170615834 -0.005483691808 0
-0.000459092745466 -0.000941502071917 0
2.36225407558e-05 5.19213656679e-05 0
-8.7336000214e-06 4.87064216312e-05 0
-6.90211083592e-05 -0.000543955715904 0
0.000230292957716 -0.000105914939917 0
0.000541483465117 -0.00161539237486 0
0.000491994853114 -0.000885087709434 0
0.000338450671468 -0.000135819859138 0
0.000107220939455 -0.000279189491012 0
-0.000548158348883 -0.00127187089704 0
-0.000424733430629 -0.000325447755739 0
7.47390661299e-05 -7.10151779418e-05 0
0.000220964802596 -0.00127378307723 0
-5.81658686462e-05 -0.00670425094842 0
1.66013067562e-05 -8.91932467257e-06 0
-0.000405339783344 -0.00458879647145 0
3.09910143654e-05 -0.000102493185673 0
0.000146133194461 -7.47226123669e-05 0
9.9002357359e-05 -0.00163462502848 0
0.000251645389037 -2.18764145793e-05 0
-0.000159005105239 -0.000176396883459 0
-0.000295565029024 -0.00187730873302 0
0.000418429243035 -0.00156270286391 0
-0.000526169044799 -0.000586960093591 0
5.65453416262e-05 -0.000689115795557 0
-0.000221011119875 -0.000284236067689 0
7.21581108116e-05 -1.44426908853e-06 0
-0.00024114965057 -1.93776394077e-05 0
0.000290015605553 -0.00155377141774 0
-0.000340783043198 -0.000568755132372 0
-0.000285020596998 -0.00101141293364 0
0.000174952215719 6.25674204965e-05 0
-0.000164046860889 6.71831290404e-05 0
0.000178757260293 -0.0027487521022 0
0.000269448354444 -0.00095552861806 0
0.00018144113065 -0.000458837825198 0
0.000451011446976 -0.000424392786804 0
-0.000250134400295 -4.93205303431e-05 0
6.95209804652e-05 -2.42243683373e-05 0
-0.000192130441218 -9.33295278076e-05 0
0.000307859629669 -0.00571784641571 0
0.000184851825146 -0.00208140021352 0
9.99330678569e-05 -0.00268363685285 0
0.000161957265593 -0.000161790313078 0
-4.81563798043e-06 -0.000440867018879 0
2.30445974297e-06 5.17372597052e-05 0
8.92408301014e-05 -0.000172361602051 0
1.22115146057e-05 4.85629509589e-05 0
0.000135390923397 -0.000192527470293 0
0.000574986808966 -0.00124186328302 0
9.22467614304e-05 -0.00784301661392 0
-0.000136509614689 -0.00201450365812 0
-0.000237146549547 -7.31639000917e-05 0
-0.000496188713825 -0.00106818322664 0
0.000585684657021 -0.00160832698717 0
0.000245023087865 -0.000456153544812 0
0.000255731660581 -0.000329840940457 0
-0.000334292672957 -0.00125049523091 0
0.00017955526468 -0.00389939598845 0
8.03575662516e-05 -0.000310016184613 0
-6.22465149377e-06 1.22501792113e-07 0
-0.000339791555061 -0.000206752928232 0
-0.000377789443027 -0.00531856357514 0
-0.00030858691338 -8.98515080821e-05 0
0.000198222665857 -9.59856372139e-05 0
1.99357782515e-05 -4.14427336084e-05 0
9.77770968156e-06 3.14804518561e-05 0
5.16617965099e-06 2.57219496485e-05 0
0.000391356244893 -0.00244764187748 0
1.90383174074e-05 9.43115030975e-05 0
-4.06603577614e-06 8.99581004372e-05 0
-0.000658429826644 -0.00215584499293 0
5.01311684632e-05 1.68726959944e-06 0
-0.000186199611988 3.44639319372e-05 0
0.000196774928073 3.14226858436e-05 0
0.000443610635804 -0.000317722555043 0
-0.000278717409019 -0.000942428414014 0
-2.04929233134e-05 -0.000209265492078 0
7.81071553184e-05 -0.000101124396942 0
0.000271616826216 -0.00340719583495 0
-0.000160277923922 -0.000284595414034 0
0.000156005676761 -0.00162110198792 0
-0.000443273220109 -0.00314981220093 0
-0.000561666544396 -0.00164700910736 0
-0.000147914270335 -0.0011136992488 0
-0.000213086171944 -0.00507352773304 0
-1.01239332848e-05 0.000114385561408 0
2.45109995494e-05 0.000109534600203 0
-0.000432166436275 -0.000506180405924 0
-0.000114703030329 -0.000275404181618 0
-4.09347799923e-05 4.30386015803e-05 0
0.000747723290062 -0.0023314807174 0
5.49113951625e-05 4.0163563162e-05 0
-6.68085455043e-05 -9.91528297256e-05 0
0.000360000321362 -0.00539091635723 0
-0.000425719913002 -0.000277930651455 0
-0.000607861780771 -0.00154053671527 0
0.000381208245095 -0.000205201897548 0