# vtk DataFile Version 2.0
Generated with Solid Solver
ASCII
DATASET UNSTRUCTURED_GRID
POINTS 999 float 
0.2 4.3001 0.0
1.4 4.3001 0.0
1.4 4.8001 0.0
0.2 4.8001 0.0
1.4 4.32033264049 0.0
1.4 4.34261203886 0.0
1.4 4.36714525371 0.0
1.4 4.3941602782 0.0
1.4 4.42390817466 0.0
1.4 4.45666541084 0.0
1.4 4.49273640748 0.0
1.4 4.5324564007 0.0
1.4 4.57619451608 0.0
1.4 4.62435723872 0.0
1.4 4.67739217343 0.0
1.4 4.73579218095 0.0
1.33333333333 4.8001 0.0
1.26666666667 4.8001 0.0
1.2 4.8001 0.0
1.13333333333 4.8001 0.0
1.06666666667 4.8001 0.0
1.0 4.8001 0.0
0.933333333334 4.8001 0.0
0.866666666668 4.8001 0.0
0.800000000001 4.8001 0.0
0.733333333334 4.8001 0.0
0.666666666668 4.8001 0.0
0.600000000001 4.8001 0.0
0.533333333334 4.8001 0.0
0.466666666667 4.8001 0.0
0.4 4.8001 0.0
0.333333333334 4.8001 0.0
0.266666666667 4.8001 0.0
0.2 4.73579218095 0.0
0.2 4.67739217343 0.0
0.2 4.62435723872 0.0
0.2 4.57619451608 0.0
0.2 4.5324564007 0.0
0.2 4.49273640748 0.0
0.2 4.45666541084 0.0
0.2 4.42390817466 0.0
0.2 4.3941602782 0.0
0.2 4.36714525371 0.0
0.2 4.34261203886 0.0
0.2 4.32033264049 0.0
0.212131543907 4.28436329506 0.0
0.224675715302 4.26895348652 0.0
0.23762369102 4.25388141198 0.0
0.250966423879 4.23915760374 0.0
0.264694484585 4.22479246611 0.0
0.278798324214 4.21079599189 0.0
0.293267939266 4.19717810803 0.0
0.308093289028 4.18394826442 0.0
0.323263842145 4.17111585877 0.0
0.338769084145 4.15868978512 0.0
0.354597997314 4.14667887342 0.0
0.37073960121 4.13509145532 0.0
0.387182441982 4.12393575334 0.0
0.403915091795 4.11321952025 0.0
0.420925712897 4.10295033813 0.0
0.438202430937 4.09313537461 0.0
0.455733079095 4.08378154223 0.0
0.473505374364 4.07489539439 0.0
0.491506842655 4.06648316882 0.0
0.509724826085 4.0585507802 0.0
0.528146580414 4.05110377808 0.0
0.546759103951 4.04414741762 0.0
0.56554943677 4.03768654322 0.0
0.584504260001 4.03172573401 0.0
0.60361041518 4.0262691282 0.0
0.622854334779 4.02132060039 0.0
0.642222678753 4.01688358113 0.0
0.661701681839 4.01296122392 0.0
0.681277836375 4.00955624851 0.0
0.700937245817 4.00667107217 0.0
0.720666255912 4.00430769845 0.0
0.740450894784 4.00246780161 0.0
0.76027736978 4.00115266363 0.0
0.780131702711 4.00036321235 0.0
0.799999999998 4.0001 0.0
0.819868297285 4.00036321235 0.0
0.839722630216 4.00115266363 0.0
0.859549105212 4.00246780161 0.0
0.879333744085 4.00430769845 0.0
0.89906275418 4.00667107217 0.0
0.918722163621 4.00955624851 0.0
0.938298318157 4.01296122392 0.0
0.957777321244 4.01688358113 0.0
0.977145665218 4.02132060039 0.0
0.996389584817 4.0262691282 0.0
1.01549574 4.03172573401 0.0
1.03445056323 4.03768654322 0.0
1.05324089605 4.04414741762 0.0
1.07185341958 4.05110377808 0.0
1.09027517391 4.0585507802 0.0
1.10849315734 4.06648316882 0.0
1.12649462563 4.07489539439 0.0
1.1442669209 4.08378154222 0.0
1.16179756906 4.0931353746 0.0
1.1790742871 4.10295033813 0.0
1.1960849082 4.11321952024 0.0
1.21281755802 4.12393575334 0.0
1.22926039879 4.13509145532 0.0
1.24540200269 4.14667887342 0.0
1.26123091585 4.15868978512 0.0
1.27673615785 4.17111585877 0.0
1.29190671097 4.18394826442 0.0
1.30673206073 4.19717810803 0.0
1.32120167579 4.21079599189 0.0
1.33530551541 4.22479246611 0.0
1.34903357612 4.23915760374 0.0
1.36237630898 4.25388141198 0.0
1.3753242847 4.26895348652 0.0
1.38786845609 4.28436329506 0.0
1.05632730172 4.43535283906 0.0
0.549964048968 4.4381053958 0.0
0.806135520676 4.28696690218 0.0
0.60389578305 4.23589310371 0.0
1.22984770884 4.35828704125 0.0
0.3703382852 4.35933552752 0.0
0.995322815839 4.23075031136 0.0
0.728315816804 4.1516935937 0.0
0.872128173905 4.14798724072 0.0
1.14059401893 4.24808468684 0.0
0.461553191009 4.24691671009 0.0
0.784706775856 4.54331390922 0.0
0.398287125272 4.55455970538 0.0
1.20625306554 4.55844743514 0.0
0.624100842742 4.1340824436 0.0
0.5257453845 4.16321776279 0.0
0.978502430793 4.12998737058 0.0
1.07419209812 4.16335154482 0.0
0.364313698077 4.26187035763 0.0
1.23509538257 4.26191716733 0.0
0.68124123937 4.36794548972 0.0
1.31679378691 4.32522066749 0.0
0.283206213094 4.32522066749 0.0
0.791498533126 4.08977141721 0.0
0.931481076052 4.3552344917 0.0
0.96671906557 4.60288042839 0.0
0.684451667517 4.08578036752 0.0
0.618335406951 4.60196910993 0.0
0.450982331762 4.17196171732 0.0
0.915674266355 4.08505633851 0.0
1.14900051594 4.17199012964 0.0
1.30193709687 4.4232448133 0.0
0.29857466761 4.42326296922 0.0
1.05734787542 4.32500107617 0.0
0.539273225177 4.32762599628 0.0
0.709896798149 4.25231026287 0.0
0.895708916005 4.24434194389 0.0
0.813273511364 4.41345766235 0.0
0.559289631452 4.10740879113 0.0
1.04001407307 4.10791539633 0.0
0.801161810585 4.20656244955 0.0
0.665113819616 4.49566650186 0.0
0.852577362173 4.06621846388 0.0
0.39025672787 4.1993806298 0.0
1.20974450479 4.19938104599 0.0
0.921542541183 4.50288058719 0.0
1.14030889032 4.33947344809 0.0
1.15600477272 4.44318538305 0.0
0.435243219029 4.4501581257 0.0
0.462045157798 4.34164654286 0.0
0.735806812738 4.05982269746 0.0
1.30082934537 4.27303772796 0.0
0.299170654625 4.27303772796 0.0
0.533651712118 4.23775983853 0.0
0.666130919144 4.19162131559 0.0
1.0676097303 4.23689469382 0.0
1.08054433577 4.56040946155 0.0
0.506773767255 4.54078295079 0.0
0.626745312844 4.07634420826 0.0
0.933845304214 4.1857954732 0.0
0.293717639664 4.52685000185 0.0
0.31250502208 4.63936411351 0.0
1.3058164124 4.52664930624 0.0
1.29054387065 4.63812765963 0.0
0.973467966326 4.07451619478 0.0
0.487935413164 4.12597084015 0.0
0.461549079751 4.66346834982 0.0
1.11203248746 4.12603503889 0.0
1.14453515393 4.68127370303 0.0
0.840217564202 4.66401146633 0.0
0.585347033288 4.18049048534 0.0
0.619177396637 4.31737576306 0.0
0.331644410315 4.22472190462 0.0
1.26835558968 4.22472190462 0.0
1.01536156978 4.17497473052 0.0
0.809331033562 4.04575709122 0.0
0.982321540791 4.30947358971 0.0
0.725600576914 4.64509651799 0.0
0.812291456186 4.14152942492 0.0
0.335887692543 4.31428235669 0.0
1.26344844681 4.31527131907 0.0
1.23449730504 4.46967441524 0.0
1.34334172096 4.38049551957 0.0
0.256658279045 4.38049551957 0.0
0.741646926828 4.31797908527 0.0
0.674799084703 4.14183768522 0.0
1.18647435526 4.28465189749 0.0
0.360563250284 4.47106479569 0.0
0.873716483853 4.31355499203 0.0
0.418704489949 4.28656264283 0.0
0.492670911224 4.20441614809 0.0
0.403480880356 4.16556776931 0.0
1.19651541215 4.1655686246 0.0
0.728649253738 4.43724546491 0.0
1.00883674467 4.37684664879 0.0
1.11035034557 4.20671841276 0.0
0.261968539765 4.2881079512 0.0
1.33803146023 4.2881079512 0.0
0.74649980488 4.1069354354 0.0
0.927597725248 4.1328597079 0.0
0.892956618256 4.05129338913 0.0
0.659794281787 4.05461387326 0.0
0.587663534405 4.06996537006 0.0
0.942353209926 4.05445300973 0.0
1.01493747319 4.06986013719 0.0
0.613130017774 4.38879803882 0.0
0.449373501074 4.12887191978 0.0
0.514840228377 4.09735850006 0.0
0.497057592 4.38843092106 0.0
1.15061382426 4.12889293084 0.0
1.08514419473 4.09738328152 0.0
0.745617635771 4.20608957592 0.0
0.875234522129 4.57363036549 0.0
0.855262884783 4.2009970831 0.0
1.01126200032 4.50790064162 0.0
1.09391916408 4.38142408872 0.0
1.04436265455 4.68992000827 0.0
0.314320181089 4.36283968607 0.0
1.28649331902 4.36253720145 0.0
0.771211579291 4.03826862024 0.0
0.432259099658 4.21516002157 0.0
0.698583889427 4.04654353526 0.0
1.16802128371 4.213962881 0.0
1.09587629216 4.2837676659 0.0
1.35920470355 4.33176960471 0.0
0.240795296449 4.33176960471 0.0
0.504003580654 4.28325758118 0.0
0.579942709371 4.5093075073 0.0
0.875915224914 4.10325792528 0.0
0.426503136644 4.38227733008 0.0
0.57541416445 4.27875301522 0.0
0.683877978289 4.30671848113 0.0
0.888061695889 4.42143509246 0.0
1.33987712478 4.47369249103 0.0
0.26012287522 4.47369249103 0.0
0.801393572636 4.34570096582 0.0
0.558460082533 4.70006728209 0.0
1.1741923373 4.38642830101 0.0
0.83220012886 4.10289415912 0.0
1.02815069622 4.27563276509 0.0
0.948308583502 4.2631204454 0.0
0.846588933095 4.48344596945 0.0
1.25632767671 4.40990360053 0.0
0.343666800815 4.40995820652 0.0
0.97849585731 4.44541535602 0.0
1.10170977548 4.49017265998 0.0
0.662193131828 4.24319398492 0.0
0.400503668388 4.24391657105 0.0
1.20117145985 4.23640427377 0.0
0.350957892513 4.19306558019 0.0
1.24904210749 4.19306558019 0.0
0.771964652188 4.16415379403 0.0
0.932165148285 4.70246281402 0.0
0.373672364094 4.70831357765 0.0
0.760245937722 4.25919350779 0.0
0.848718469252 4.03277763075 0.0
1.23385612561 4.7109294747 0.0
0.846421485813 4.25575918421 0.0
0.651597058631 4.10553284014 0.0
0.650489852551 4.69648045504 0.0
0.58457834847 4.13885088261 0.0
0.48701309933 4.16369927013 0.0
0.708495738406 4.56366947756 0.0
1.11203398596 4.16388062515 0.0
0.54865558244 4.07760047869 0.0
1.05126102377 4.07744629471 0.0
0.300013757486 4.23769646442 0.0
1.29998624251 4.23769646442 0.0
0.9465032388 4.10228070354 0.0
0.708587583337 4.11656095907 0.0
0.973348904468 4.17047871864 0.0
0.628721855632 4.17048356945 0.0
0.380175010019 4.31531880077 0.0
0.662092932411 4.43409041267 0.0
1.05133526787 4.19731992007 0.0
0.528087045766 4.61837882187 0.0
1.22233124543 4.31031693908 0.0
1.19001193434 4.33783586668 0.0
0.853024099244 4.37054003492 0.0
0.542800296246 4.19834366905 0.0
0.247706318737 4.42749119247 0.0
1.35229368126 4.42749119247 0.0
0.599153768578 4.10463797005 0.0
1.01616570494 4.13737683178 0.0
0.744705786938 4.38079544575 0.0
1.31929001115 4.71212550052 0.0
0.777615355331 4.12623602511 0.0
0.265621610877 4.58485488866 0.0
1.33132411895 4.58141378639 0.0
0.532023338888 4.12884454388 0.0
1.0697792195 4.12751429251 0.0
0.286371037106 4.70520312914 0.0
0.497725885905 4.47663668256 0.0
0.46053455822 4.29097947599 0.0
0.433799237968 4.52139400991 0.0
0.388624781906 4.62604200004 0.0
0.554823673752 4.37961940232 0.0
1.1421595646 4.29328301431 0.0
1.14760043966 4.59165103139 0.0
1.21258698805 4.62830200685 0.0
1.16279096046 4.50802621409 0.0
0.995762647814 4.10018772517 0.0
0.456229040627 4.58966685246 0.0
0.707289391156 4.19030271873 0.0
0.763036833302 4.71795445535 0.0
[...]
POINT_DATA 999
VECTORS Displacement float
-9.74532587947e-16 -0.0225 0
3.47122551125e-16 -0.0225 0
0.0 -0.0225 0
0.0 -0.0225 0
3.06260470188e-16 -0.0225 0
2.70049315048e-16 -0.0225 0
2.33368207558e-16 -0.0225 0
1.96815663657e-16 -0.0225 0
1.65257929867e-16 -0.0225 0
1.36570523659e-16 -0.0225 0
1.17688766525e-16 -0.0225 0
1.11763680819e-16 -0.0225 0
1.21835575667e-16 -0.0225 0
1.12423648015e-16 -0.0225 0
-4.38150797928e-18 -0.0225 0
-5.07031375337e-16 -0.0225 0
0.0 -0.0225 0
0.0 -0.0225 0
0.0 -0.0225 0
0.0 -0.0225 0
0.0 -0.0225 0
0.0 -0.0225 0
0.0 -0.0225 0
0.0 -0.0225 0
0.0 -0.0225 0
0.0 -0.0225 0
0.0 -0.0225 0
0.0 -0.0225 0
0.0 -0.0225 0
0.0 -0.0225 0
0.0 -0.0225 0
0.0 -0.0225 0
0.0 -0.0225 0
4.85764896797e-16 -0.0225 0
2.3365889405e-17 -0.0225 0
-2.61857032749e-16 -0.0225 0
-4.15964291835e-16 -0.0225 0
-5.19206774366e-16 -0.0225 0
-5.96873932765e-16 -0.0225 0
-6.65562338748e-16 -0.0225 0
-7.25085113084e-16 -0.0225 0
-7.76928329791e-16 -0.0225 0
-8.26778969423e-16 -0.0225 0
-8.72223297238e-16 -0.0225 0
-9.21244106797e-16 -0.0225 0
-1.01736777439e-15 -0.0225 0
-1.06629816794e-15 -0.0225 0
-1.10714052067e-15 -0.0225 0
-1.14508474489e-15 -0.0225 0
-1.17833599269e-15 -0.0225 0
-1.20911719895e-15 -0.0225 0
-1.23262030521e-15 -0.0225 0
-1.25452550222e-15 -0.0225 0
-1.27029831532e-15 -0.0225 0
-1.27980557752e-15 -0.0225 0
-1.28600844405e-15 -0.0225 0
-1.28501280045e-15 -0.0225 0
-1.27991546784e-15 -0.0225 0
-1.2693820337e-15 -0.0225 0
-1.2537898903e-15 -0.0225 0
-1.23080143803e-15 -0.0225 0
-1.20425680251e-15 -0.0225 0
-1.17148732352e-15 -0.0225 0
-1.1349037567e-15 -0.0225 0
-1.09204571619e-15 -0.0225 0
-1.04589762125e-15 -0.0225 0
-9.96315719259e-16 -0.0225 0
-9.42921619242e-16 -0.0225 0
-8.84399826505e-16 -0.0225 0
-8.22983121137e-16 -0.0225 0
-7.5845009005e-16 -0.0225 0
-6.90586508559e-16 -0.0225 0
-6.21854974931e-16 -0.0225 0
-5.51693356039e-16 -0.0225 0
-4.79810182592e-16 -0.0225 0
-4.09316856933e-16 -0.0225 0
-3.34867885756e-16 -0.0225 0
-2.61105971984e-16 -0.0225 0
-1.86579964184e-16 -0.0225 0
-1.15247936579e-16 -0.0225 0
-4.32712266863e-17 -0.0225 0
2.56441652039e-17 -0.0225 0
9.38063752321e-17 -0.0225 0
1.56583463697e-16 -0.0225 0
2.20744151271e-16 -0.0225 0
2.81376858434e-16 -0.0225 0
3.38568280811e-16 -0.0225 0
3.91585395318e-16 -0.0225 0
4.42287661596e-16 -0.0225 0
4.88461972556e-16 -0.0225 0
5.3069903974e-16 -0.0225 0
5.67279277085e-16 -0.0225 0
5.99939428973e-16 -0.0225 0
6.25537128056e-16 -0.0225 0
6.50057682587e-16 -0.0225 0
6.70760506998e-16 -0.0225 0
6.87067379498e-16 -0.0225 0
6.94435214746e-16 -0.0225 0
6.98901032424e-16 -0.0225 0
7.00876031111e-16 -0.0225 0
6.98971445909e-16 -0.0225 0
6.94174891934e-16 -0.0225 0
6.82123592092e-16 -0.0225 0
6.66621337181e-16 -0.0225 0
6.48587223573e-16 -0.0225 0
6.28312368616e-16 -0.0225 0
6.02471029106e-16 -0.0225 0
5.76160891046e-16 -0.0225 0
5.47919212546e-16 -0.0225 0
5.17970207864e-16 -0.0225 0
4.84538252611e-16 -0.0225 0
4.50417447593e-16 -0.0225 0
4.16120171023e-16 -0.0225 0
3.81266356584e-16 -0.0225 0
5.04081763295e-16 -0.0225 0
-1.08829454848e-15 -0.0225 0
-8.501727222e-17 -0.0225 0
-8.13117530498e-16 -0.0225 0
3.10458455663e-16 -0.0225 0
-9.54832851215e-16 -0.0225 0
3.76492254611e-16 -0.0225 0
-4.05428992352e-16 -0.0225 0
7.21071721208e-17 -0.0225 0
4.63444205026e-16 -0.0225 0
-1.04567929985e-15 -0.0225 0
1.38732722579e-16 -0.0225 0
-5.87209223713e-16 -0.0225 0
-2.8581382488e-17 -0.0225 0
-7.39710539403e-16 -0.0225 0
-9.84980881523e-16 -0.0225 0
3.49677589756e-16 -0.0225 0
4.89608710643e-16 -0.0225 0
-1.07040967258e-15 -0.0225 0
4.39537191512e-16 -0.0225 0
-6.87299344607e-16 -0.0225 0
3.16125750299e-16 -0.0225 0
-9.48255545771e-16 -0.0225 0
-1.80917968312e-16 -0.0225 0
4.43240554e-16 -0.0225 0
1.00762726235e-15 -0.0225 0
-5.47925465424e-16 -0.0225 0
-1.68544410723e-15 -0.0225 0
-1.11147884155e-15 -0.0225 0
2.10676792177e-16 -0.0225 0
5.51290471482e-16 -0.0225 0
1.97843597075e-16 -0.0225 0
-8.11188676107e-16 -0.0225 0
4.57245990879e-16 -0.0225 0
-9.87533237983e-16 -0.0225 0
-4.833289962e-16 -0.0225 0
1.85517094819e-16 -0.0225 0
1.23469479856e-16 -0.0225 0
-9.26654476808e-16 -0.0225 0
4.86829289683e-16 -0.0225 0
-1.44475454814e-16 -0.0225 0
-1.13531965928e-15 -0.0225 0
2.84702873754e-17 -0.0225 0
-1.14760244611e-15 -0.0225 0
5.40055287345e-16 -0.0225 0
9.52932696683e-16 -0.0225 0
3.98185503146e-16 -0.0225 0
2.75110614918e-16 -0.0225 0
-9.18142551008e-16 -0.0225 0
-1.01120334002e-15 -0.0225 0
-3.68603980095e-16 -0.0225 0
4.09791225369e-16 -0.0225 0
-1.05169320121e-15 -0.0225 0
-9.58802425421e-16 -0.0225 0
-6.17462321934e-16 -0.0225 0
4.47061544499e-16 -0.0225 0
2.7833570336e-16 -0.0225 0
-9.62686059179e-16 -0.0225 0
-7.34622733435e-16 -0.0225 0
2.45572865826e-16 -0.0225 0
-6.36577054823e-16 -0.0225 0
-3.69860058457e-16 -0.0225 0
1.36739641795e-16 -0.0225 0
1.6325827882e-16 -0.0225 0
3.71374868613e-16 -0.0225 0
-1.08601166358e-15 -0.0225 0
-1.28446225809e-16 -0.0225 0
5.75665803181e-16 -0.0225 0
-5.04963540645e-16 -0.0225 0
2.11284851999e-15 -0.0225 0
-8.46662407253e-16 -0.0225 0
-8.38245216276e-16 -0.0225 0
-1.14479903351e-15 -0.0225 0
5.0582130661e-16 -0.0225 0
4.02200021829e-16 -0.0225 0
-1.07264787484e-16 -0.0225 0
4.27516204507e-16 -0.0225 0
-1.72548371861e-15 -0.0225 0
-1.18694706116e-16 -0.0225 0
-9.90042532764e-16 -0.0225 0
3.49331143962e-16 -0.0225 0
1.60408410697e-16 -0.0225 0
2.29884212308e-16 -0.0225 0
-8.42085865595e-16 -0.0225 0
-3.66659872701e-16 -0.0225 0
-5.81591604685e-16 -0.0225 0
4.19656523704e-16 -0.0225 0
-7.87943418794e-16 -0.0225 0
2.08670466506e-16 -0.0225 0
-1.03832769928e-15 -0.0225 0
-1.02867748207e-15 -0.0225 0
-1.18560854706e-15 -0.0225 0
5.92712154963e-16 -0.0225 0
-5.28433448736e-16 -0.0225 0
5.25035469698e-16 -0.0225 0
4.87075792734e-16 -0.0225 0
-1.0141213407e-15 -0.0225 0
3.76151699041e-16 -0.0225 0
-3.39724464344e-16 -0.0225 0
2.27545650061e-16 -0.0225 0
1.64346808e-16 -0.0225 0
-6.29481531479e-16 -0.0225 0
-8.6005382775e-16 -0.0225 0
3.07572456433e-16 -0.0225 0
4.77005129945e-16 -0.0225 0
-9.6343071891e-16 -0.0225 0
-1.1608177127e-15 -0.0225 0
-1.0478781401e-15 -0.0225 0
-1.02290680572e-15 -0.0225 0
6.18189638026e-16 -0.0225 0
5.77569011873e-16 -0.0225 0
-3.46095371785e-16 -0.0225 0
1.331619298e-15 -0.0225 0
3.50846845806e-17 -0.0225 0
6.70161534246e-16 -0.0225 0
4.34395479579e-16 -0.0225 0
7.05190176823e-18 -0.0225 0
-9.09635604111e-16 -0.0225 0
2.74087533638e-16 -0.0225 0
-2.36081681146e-16 -0.0225 0
-1.09165073724e-15 -0.0225 0
-4.95959149145e-16 -0.0225 0
5.05319419943e-16 -0.0225 0
4.45639007096e-16 -0.0225 0
2.93905723875e-16 -0.0225 0
-9.12965234068e-16 -0.0225 0
-1.00145558963e-15 -0.0225 0
-1.21035745319e-15 -0.0225 0
8.73057660518e-17 -0.0225 0
-9.73031075534e-16 -0.0225 0
-9.01874271304e-16 -0.0225 0
-6.13037825998e-16 -0.0225 0
5.40366798484e-16 -0.0225 0
1.48443129244e-16 -0.0225 0
-6.99720201831e-16 -0.0225 0
-5.40023599645e-17 -0.0225 0
-6.38372622707e-16 -0.0225 0
3.25241336613e-16 -0.0225 0
-5.16012955368e-17 -0.0225 0
4.3117987729e-16 -0.0225 0
3.25472120256e-16 -0.0225 0
6.10627757994e-16 -0.0225 0
2.30208016011e-16 -0.0225 0
-8.68515337926e-16 -0.0225 0
6.762698212e-16 -0.0225 0
3.27761405396e-16 -0.0225 0
-6.46153219413e-16 -0.0225 0
-1.08406541368e-15 -0.0225 0
4.79538266702e-16 -0.0225 0
-1.19452528482e-15 -0.0225 0
5.65895251706e-16 -0.0225 0
-2.54924968978e-16 -0.0225 0
8.14014265523e-16 -0.0225 0
1.05342641683e-16 -0.0225 0
-2.88235562697e-16 -0.0225 0
3.43766081535e-17 -0.0225 0
-3.701305171e-17 -0.0225 0
4.21602982824e-17 -0.0225 0
-6.54772487924e-16 -0.0225 0
-1.91213485496e-15 -0.0225 0
-8.52651338404e-16 -0.0225 0
-1.05879030033e-15 -0.0225 0
-1.14137716485e-15 -0.0225 0
5.30140328279e-16 -0.0225 0
-9.70654071541e-16 -0.0225 0
5.4442579622e-16 -0.0225 0
-1.13116069898e-15 -0.0225 0
4.82749346052e-16 -0.0225 0
2.85168820949e-16 -0.0225 0
-4.68452026428e-16 -0.0225 0
3.28897211295e-16 -0.0225 0
-7.27915822747e-16 -0.0225 0
-1.00633629914e-15 -0.0225 0
-9.14165516667e-16 -0.0225 0
4.42538491241e-16 -0.0225 0
-9.051002181e-16 -0.0225 0
3.74022940765e-16 -0.0225 0
3.61609739123e-16 -0.0225 0
2.41480066861e-16 -0.0225 0
-9.42262604035e-16 -0.0225 0
-7.6163379935e-16 -0.0225 0
1.75034462365e-16 -0.0225 0
-8.15744493789e-16 -0.0225 0
4.20190365605e-16 -0.0225 0
-3.61862709928e-16 -0.0225 0
-6.45635550864e-18 -0.0225 0
-2.35339235571e-16 -0.0225 0
-4.94333241382e-16 -0.0225 0
1.65466466404e-16 -0.0225 0
-9.85465386333e-16 -0.0225 0
5.16867692892e-16 -0.0225 0
-4.09381244258e-17 -0.0225 0
-1.00858673706e-15 -0.0225 0
-1.02445180313e-15 -0.0225 0
-7.62534192167e-16 -0.0225 0
-2.43563444186e-16 -0.0225 0
-1.02043890565e-15 -0.0225 0
4.27974432366e-16 -0.0225 0
-1.45007124739e-16 -0.0225 0
-2.6541482016e-16 -0.0225 0
1.36716445919e-16 -0.0225 0
4.05511124828e-16 -0.0225 0
-5.5303316095e-16 -0.0225 0
-4.81344183352e-16 -0.0225 0
-4.55570856428e-16 -0.0225 0
2.18703287888e-18 -0.0225 0
3.38419673908e-16 -0.0225 0
-1.20210653658e-15 -0.0225 0
1.41108972745e-16 -0.0225 0
6.3284637355e-16 -0.0225 0
1.5531835273e-16 -0.0225 0
-3.68943284206e-16 -0.0225 0
-1.07997750116e-15 -0.0225 0
4.39803113277e-16 -0.0225 0
-1.21593914482e-15 -0.0225 0
6.02754553262e-16 -0.0225 0
-1.10335014904e-15 -0.0225 0
-9.93099710417e-16 -0.0225 0
-2.64078691033e-16 -0.0225 0
-8.52481584502e-16 -0.0225 0
-1.12348930862e-15 -0.0225 0
4.96148989861e-16 -0.0225 0
-7.51051265734e-16 -0.0225 0
2.4121654759e-16 -0.0225 0
3.02932067121e-16 -0.0225 0
-1.08511324017e-15 -0.0225 0
4.37054219764e-16 -0.0225 0
3.10629699757e-17 -0.0225 0
-8.94258780158e-16 -0.0225 0
-9.62287157946e-16 -0.0225 0
3.3766152395e-16 -0.0225 0
-7.57665575103e-16 -0.0225 0
-2.31380257549e-17 -0.0225 0
-5.33532232063e-16 -0.0225 0
7.53837764662e-17 -0.0225 0
-1.01288179867e-15 -0.0225 0
-4.49480219182e-16 -0.0225 0
-1.26774809877e-16 -0.0225 0
-7.57160456124e-17 -0.0225 0
4.33132690328e-16 -0.0225 0
4.62497422821e-16 -0.0225 0
-7.61406536026e-16 -0.0225 0
2.43433531942e-16 -0.0225 0
4.04631790445e-16 -0.0225 0
3.70488581357e-16 -0.0225 0
-9.87829744596e-16 -0.0225 0
3.48755827025e-16 -0.0225 0
1.05926219498e-15 -0.0225 0
-1.0107405854e-15 -0.0225 0
-8.75773932691e-16 -0.0225 0
4.56852304606e-16 -0.0225 0
-1.43002915084e-15 -0.0225 0
5.76681323205e-16 -0.0225 0
-1.1289624028e-15 -0.0225 0
6.22067321003e-16 -0.0225 0
-1.06891577995e-15 -0.0225 0
5.06509875617e-16 -0.0225 0
-6.20572318274e-16 -0.0225 0
1.40946940213e-16 -0.0225 0
-7.50003282182e-16 -0.0225 0
4.17702341127e-16 -0.0225 0
-9.22830016242e-16 -0.0225 0
6.27811163637e-16 -0.0225 0
1.15092216313e-16 -0.0225 0
5.90816103803e-16 -0.0225 0
2.5185835092e-16 -0.0225 0
-8.60142153785e-16 -0.0225 0
-1.13932649901e-15 -0.0225 0
1.16356258278e-16 -0.0225 0
5.55494163912e-16 -0.0225 0
-5.55712304862e-16 -0.0225 0
1.55041594723e-15 -0.0225 0
-3.17679489423e-16 -0.0225 0
4.8656034939e-16 -0.0225 0
-9.4414453433e-16 -0.0225 0
2.6451159138e-16 -0.0225 0
-8.89199851375e-16 -0.0225 0
9.27437132046e-17 -0.0225 0
-6.73967697009e-16 -0.0225 0
1.7199280567e-16 -0.0225 0
4.52232756852e-16 -0.0225 0
-5.73228962548e-16 -0.0225 0
-1.49439383971e-16 -0.0225 0
-1.43221138192e-17 -0.0225 0
-9.88113837606e-16 -0.0225 0
-1.06085063508e-15 -0.0225 0
-1.19850929146e-15 -0.0225 0
5.57653999215e-16 -0.0225 0
7.15105052383e-17 -0.0225 0
2.04010334886e-16 -0.0225 0
-3.76097406163e-17 -0.0225 0
1.73702774139e-16 -0.0225 0
-1.02762652645e-15 -0.0225 0
3.91211010724e-16 -0.0225 0
4.64482782882e-16 -0.0225 0
-3.44445530068e-16 -0.0225 0
-8.78506988358e-17 -0.0225 0
3.76661364385e-16 -0.0225 0
-1.18729449604e-15 -0.0225 0
-6.74234348812e-16 -0.0225 0
4.79247496186e-16 -0.0225 0
4.44341784248e-16 -0.0225 0
3.61241654685e-16 -0.0225 0
3.93309394181e-16 -0.0225 0
-8.27108849775e-16 -0.0225 0
-8.02409428383e-16 -0.0225 0
-6.5260574766e-16 -0.0225 0
-7.50726781598e-16 -0.0225 0
-9.51010970315e-16 -0.0225 0
3.14540145955e-16 -0.0225 0
-1.17744115067e-15 -0.0225 0
5.28657855883e-16 -0.0225 0
1.59599855607e-16 -0.0225 0
4.31689654207e-16 -0.0225 0
4.97456232025e-16 -0.0225 0
2.87176682836e-16 -0.0225 0
-9.6154237114e-16 -0.0225 0
-3.97712148317e-16 -0.0225 0
-1.03532761218e-15 -0.0225 0
-9.62798659347e-16 -0.0225 0
3.34293472617e-16 -0.0225 0
1.6160627278e-15 -0.0225 0
-1.02584304254e-15 -0.0225 0
-1.10404338337e-15 -0.0225 0
-1.00316559209e-15 -0.0225 0
1.57315421423e-16 -0.0225 0
3.06498974521e-16 -0.0225 0
-1.03753320801e-15 -0.0225 0
4.76640272281e-16 -0.0225 0
-7.32496349555e-16 -0.0225 0
-9.38511277091e-16 -0.0225 0
5.72295670958e-16 -0.0225 0
-1.97499913685e-15 -0.0225 0
-3.19513931538e-16 -0.0225 0
5.26768252582e-16 -0.0225 0
-2.45384458769e-16 -0.0225 0
-1.0314221789e-15 -0.0225 0
5.39941897603e-16 -0.0225 0
-9.9110411196e-16 -0.0225 0
5.90445041088e-16 -0.0225 0
-1.48005920863e-16 -0.0225 0
-2.82433569918e-17 -0.0225 0
-1.9005502154e-16 -0.0225 0
2.0029506304e-16 -0.0225 0
-7.95591269555e-16 -0.0225 0
-8.28198016272e-16 -0.0225 0
-7.0612425016e-16 -0.0225 0
-2.44864419882e-15 -0.0225 0
3.78155008566e-16 -0.0225 0
4.68918333643e-16 -0.0225 0
-1.11752007429e-15 -0.0225 0
-1.17445084881e-15 -0.0225 0
-5.06462104366e-16 -0.0225 0
6.33757815874e-16 -0.0225 0
6.52621628662e-16 -0.0225 0
1.91648785168e-16 -0.0225 0
4.62630331655e-16 -0.0225 0
-1.86117762179e-16 -0.0225 0
-3.00682834383e-16 -0.0225 0
2.16946142648e-16 -0.0225 0
-4.37553072461e-16 -0.0225 0
-5.65089071671e-16 -0.0225 0
3.41308470213e-16 -0.0225 0
2.59349696395e-16 -0.0225 0
-8.77295447779e-16 -0.0225 0
-1.11528734859e-15 -0.0225 0
-8.59112995933e-16 -0.0225 0
2.32899247461e-16 -0.0225 0
8.8727619871e-16 -0.0225 0
-8.26259185773e-16 -0.0225 0
3.63376589241e-17 -0.0225 0
-2.02199595115e-17 -0.0225 0
3.24046303231e-16 -0.0225 0
-1.23652742211e-15 -0.0225 0
6.43237509912e-16 -0.0225 0
-9.49369773772e-16 -0.0225 0
2.67871348172e-16 -0.0225 0
4.60211178526e-16 -0.0225 0
-7.85357028711e-16 -0.0225 0
8.32714922861e-17 -0.0225 0
-3.46529232928e-16 -0.0225 0
-6.01258581653e-16 -0.0225 0
-5.57429149242e-16 -0.0225 0
-1.37776421574e-16 -0.0225 0
-9.3101161677e-16 -0.0225 0
-5.95513867823e-16 -0.0225 0
2.01302129483e-17 -0.0225 0
-1.83743805572e-16 -0.0225 0
-5.55255176214e-16 -0.0225 0
-9.83599987242e-16 -0.0225 0
-1.16397863369e-15 -0.0225 0
5.91662644175e-16 -0.0225 0
5.36015813236e-16 -0.0225 0
4.45069886905e-17 -0.0225 0
-3.37061199663e-16 -0.0225 0
-9.09841760784e-16 -0.0225 0
1.85603181909e-16 -0.0225 0
-8.13266529714e-16 -0.0225 0
3.78176893348e-16 -0.0225 0
3.73826593329e-16 -0.0225 0
2.83289487948e-16 -0.0225 0
-2.60585906835e-16 -0.0225 0
1.95901152883e-16 -0.0225 0
-9.89588048406e-16 -0.0225 0
3.53806781166e-16 -0.0225 0
-1.04910011913e-15 -0.0225 0
4.04040743997e-16 -0.0225 0
8.69185029399e-17 -0.0225 0
-1.01493469406e-15 -0.0225 0
-8.00337795175e-16 -0.0225 0
8.0437622741e-17 -0.0225 0
4.08654976049e-16 -0.0225 0
3.478509444e-16 -0.0225 0
3.07552158339e-16 -0.0225 0
-9.30685810593e-16 -0.0225 0
3.10226538621e-16 -0.0225 0
9.82542052087e-16 -0.0225 0
5.81069524342e-16 -0.0225 0
-1.04005353273e-15 -0.0225 0
-1.03408057289e-15 -0.0225 0
3.94379068448e-16 -0.0225 0
-1.1080794996e-15 -0.0225 0
-2.4593748872e-16 -0.0225 0
5.06798117875e-16 -0.0225 0
2.67993631782e-16 -0.0225 0
-3.09451893154e-16 -0.0225 0
-1.01528843485e-15 -0.0225 0
5.55087889288e-16 -0.0225 0
-1.15705069972e-15 -0.0225 0
5.5906703345e-16 -0.0225 0
8.24766101968e-16 -0.0225 0
-1.04229085508e-15 -0.0225 0
1.0565328776e-18 -0.0225 0
-1.1404387911e-15 -0.0225 0
4.87896065904e-16 -0.0225 0
-4.37644574767e-16 -0.0225 0
-1.20627141082e-15 -0.0225 0
6.51977209515e-16 -0.0225 0
-3.75245858412e-16 -0.0225 0
-5.98225166521e-16 -0.0225 0
-7.07134962092e-16 -0.0225 0
-1.07061362058e-15 -0.0225 0
-8.4487178136e-16 -0.0225 0
3.9916638953e-16 -0.0225 0
4.43646280197e-16 -0.0225 0
5.23291493722e-16 -0.0225 0
8.95360524246e-17 -0.0225 0
2.02634052345e-16 -0.0225 0
-8.10147847254e-16 -0.0225 0
-9.84782087274e-16 -0.0225 0
-1.10473260793e-15 -0.0225 0
4.69341189494e-16 -0.0225 0
4.49974949909e-16 -0.0225 0
-1.1564129201e-15 -0.0225 0
5.26403108267e-16 -0.0225 0
-7.12496141223e-16 -0.0225 0
1.52030375814e-16 -0.0225 0
-8.20914420594e-16 -0.0225 0
7.4158753629e-16 -0.0225 0
3.31812196588e-16 -0.0225 0
7.37990141092e-16 -0.0225 0
4.80127814455e-16 -0.0225 0
6.34201574135e-17 -0.0225 0
-9.03140751099e-16 -0.0225 0
3.12373227872e-16 -0.0225 0
6.30487710305e-16 -0.0225 0
2.69989725448e-16 -0.0225 0
-9.1269536691e-16 -0.0225 0
-1.05609010932e-15 -0.0225 0
-1.0203012113e-15 -0.0225 0
3.04466952291e-16 -0.0225 0
-8.38249526508e-16 -0.0225 0
1.20749373204e-16 -0.0225 0
5.3978117224e-16 -0.0225 0
4.63156962086e-16 -0.0225 0
-5.04659305374e-16 -0.0225 0
4.65116882117e-16 -0.0225 0
-6.95849851973e-16 -0.0225 0
4.52465743582e-16 -0.0225 0
3.63599285203e-16 -0.0225 0
1.41908747515e-15 -0.0225 0
-8.96565833002e-16 -0.0225 0
-2.523240763e-16 -0.0225 0
-1.45090439776e-15 -0.0225 0
-1.22757388123e-15 -0.0225 0
-9.1969261427e-16 -0.0225 0
-4.43109675597e-16 -0.0225 0
-7.45644599424e-16 -0.0225 0
-1.05743100446e-15 -0.0225 0
3.52547003175e-16 -0.0225 0
4.26414785253e-16 -0.0225 0
-8.88055713557e-16 -0.0225 0
2.78804969823e-16 -0.0225 0
1.67254767596e-16 -0.0225 0
-7.52682294676e-16 -0.0225 0
-2.10446134181e-16 -0.0225 0
-3.99587617505e-16 -0.0225 0
-1.13162481751e-15 -0.0225 0
2.34958035305e-16 -0.0225 0
5.13915562811e-16 -0.0225 0
-4.45464666788e-16 -0.0225 0
3.24820405027e-16 -0.0225 0
1.19909303929e-16 -0.0225 0
4.58972769382e-16 -0.0225 0
3.74091627148e-16 -0.0225 0
-1.06573856712e-15 -0.0225 0
2.30864055333e-16 -0.0225 0
6.07068274365e-16 -0.0225 0
-1.23469076289e-15 -0.0225 0
6.10122438851e-16 -0.0225 0
-2.13262534557e-16 -0.0225 0
4.52308246156e-16 -0.0225 0
1.20891133014e-15 -0.0225 0
1.49779695769e-16 -0.0225 0
7.53792702395e-16 -0.0225 0
-1.04580243509e-15 -0.0225 0
4.78656780269e-16 -0.0225 0
-9.21187403359e-16 -0.0225 0
7.19949987111e-16 -0.0225 0
-1.0408970057e-15 -0.0225 0
3.98540936348e-16 -0.0225 0
-2.45310741828e-16 -0.0225 0
4.78673831788e-16 -0.0225 0
1.42859371604e-16 -0.0225 0
-5.26337987762e-16 -0.0225 0
-5.10710621762e-16 -0.0225 0
-8.8960171164e-16 -0.0225 0
-6.13459476146e-17 -0.0225 0
-7.96970155027e-16 -0.0225 0
4.82277417e-16 -0.0225 0
4.26708312167e-16 -0.0225 0
-9.73875140557e-16 -0.0225 0
-2.79687583092e-17 -0.0225 0
1.34548462402e-16 -0.0225 0
-6.48809186758e-16 -0.0225 0
-4.22105960904e-16 -0.0225 0
2.48035308141e-16 -0.0225 0
-6.41476237555e-16 -0.0225 0
-6.3844041388e-16 -0.0225 0
-8.47567917113e-16 -0.0225 0
-1.65653610472e-16 -0.0225 0
-6.06369124231e-16 -0.0225 0
-4.9492011579e-16 -0.0225 0
2.03800260169e-16 -0.0225 0
9.74595698752e-17 -0.0225 0
3.42194900002e-16 -0.0225 0
-1.01390501023e-15 -0.0225 0
4.31275188375e-16 -0.0225 0
5.03559291082e-16 -0.0225 0
2.97611620017e-16 -0.0225 0
-1.11395030274e-15 -0.0225 0
4.73838795865e-16 -0.0225 0
-1.13387974205e-15 -0.0225 0
-4.16942678169e-16 -0.0225 0
1.66488257863e-16 -0.0225 0
-1.93524610974e-16 -0.0225 0
-8.18754015809e-16 -0.0225 0
2.21828291017e-16 -0.0225 0
-1.0826037266e-15 -0.0225 0
4.48097319389e-16 -0.0225 0
5.81564756672e-16 -0.0225 0
-9.90028630029e-16 -0.0225 0
-1.13627048934e-15 -0.0225 0
9.79634848689e-16 -0.0225 0
-8.15754349388e-16 -0.0225 0
4.10449539438e-16 -0.0225 0
-1.13198510119e-16 -0.0225 0
2.0645056324e-16 -0.0225 0
-6.33145926238e-16 -0.0225 0
7.30100891835e-17 -0.0225 0
-1.03428841282e-16 -0.0225 0
-1.44684918348e-16 -0.0225 0
-8.0462961713e-16 -0.0225 0
-1.08521163051e-15 -0.0225 0
4.19317808171e-16 -0.0225 0
2.04707943808e-17 -0.0225 0
4.51858167343e-16 -0.0225 0
3.84265253133e-16 -0.0225 0
-2.40629934054e-16 -0.0225 0
-9.67687695158e-16 -0.0225 0
3.42247389666e-16 -0.0225 0
5.92474612734e-16 -0.0225 0
-1.23787874551e-15 -0.0225 0
6.59965816328e-16 -0.0225 0
-1.01382657603e-15 -0.0225 0
3.28808541889e-16 -0.0225 0
-8.92017012234e-16 -0.0225 0
-1.08582840926e-15 -0.0225 0
5.15710658542e-16 -0.0225 0
4.32946277835e-16 -0.0225 0
-8.87597087299e-17 -0.0225 0
6.24794025338e-16 -0.0225 0
-1.11748327975e-15 -0.0225 0
5.02188476197e-16 -0.0225 0
3.37250037604e-17 -0.0225 0
-4.56595410607e-16 -0.0225 0
-1.09259541958e-15 -0.0225 0
4.4609773471e-16 -0.0225 0