# vtk DataFile Version 2.0
Generated with Solid Solver
ASCII
DATASET UNSTRUCTURED_GRID
POINTS 999 float 
0.2 4.3001 0.0
1.4 4.3001 0.0
1.4 4.8001 0.0
0.2 4.8001 0.0
1.4 4.32033264049 0.0
1.4 4.34261203886 0.0
1.4 4.36714525371 0.0
1.4 4.3941602782 0.0
1.4 4.42390817466 0.0
1.4 4.45666541084 0.0
1.4 4.49273640748 0.0
1.4 4.5324564007 0.0
1.4 4.57619451608 0.0
1.4 4.62435723872 0.0
1.4 4.67739217343 0.0
1.4 4.73579218095 0.0
1.33333333333 4.8001 0.0
1.26666666667 4.8001 0.0
1.2 4.8001 0.0
1.13333333333 4.8001 0.0
1.06666666667 4.8001 0.0
1.0 4.8001 0.0
0.933333333334 4.8001 0.0
0.866666666668 4.8001 0.0
0.800000000001 4.8001 0.0
0.733333333334 4.8001 0.0
0.666666666668 4.8001 0.0
0.600000000001 4.8001 0.0
0.533333333334 4.8001 0.0
0.466666666667 4.8001 0.0
0.4 4.8001 0.0
0.333333333334 4.8001 0.0
0.266666666667 4.8001 0.0
0.2 4.73579218095 0.0
0.2 4.67739217343 0.0
0.2 4.62435723872 0.0
0.2 4.57619451608 0.0
0.2 4.5324564007 0.0
0.2 4.49273640748 0.0
0.2 4.45666541084 0.0
0.2 4.42390817466 0.0
0.2 4.3941602782 0.0
0.2 4.36714525371 0.0
0.2 4.34261203886 0.0
0.2 4.32033264049 0.0
0.212131543907 4.28436329506 0.0
0.224675715302 4.26895348652 0.0
0.23762369102 4.25388141198 0.0
0.250966423879 4.23915760374 0.0
0.264694484585 4.22479246611 0.0
0.278798324214 4.21079599189 0.0
0.293267939266 4.19717810803 0.0
0.308093289028 4.18394826442 0.0
0.323263842145 4.17111585877 0.0
0.338769084145 4.15868978512 0.0
0.354597997314 4.14667887342 0.0
0.37073960121 4.13509145532 0.0
0.387182441982 4.12393575334 0.0
0.403915091795 4.11321952025 0.0
0.420925712897 4.10295033813 0.0
0.438202430937 4.09313537461 0.0
0.455733079095 4.08378154223 0.0
0.473505374364 4.07489539439 0.0
0.491506842655 4.06648316882 0.0
0.509724826085 4.0585507802 0.0
0.528146580414 4.05110377808 0.0
0.546759103951 4.04414741762 0.0
0.56554943677 4.03768654322 0.0
0.584504260001 4.03172573401 0.0
0.60361041518 4.0262691282 0.0
0.622854334779 4.02132060039 0.0
0.642222678753 4.01688358113 0.0
0.661701681839 4.01296122392 0.0
0.681277836375 4.00955624851 0.0
0.700937245817 4.00667107217 0.0
0.720666255912 4.00430769845 0.0
0.740450894784 4.00246780161 0.0
0.76027736978 4.00115266363 0.0
0.780131702711 4.00036321235 0.0
0.799999999998 4.0001 0.0
0.819868297285 4.00036321235 0.0
0.839722630216 4.00115266363 0.0
0.859549105212 4.00246780161 0.0
0.879333744085 4.00430769845 0.0
0.89906275418 4.00667107217 0.0
0.918722163621 4.00955624851 0.0
0.938298318157 4.01296122392 0.0
0.957777321244 4.01688358113 0.0
0.977145665218 4.02132060039 0.0
0.996389584817 4.0262691282 0.0
1.01549574 4.03172573401 0.0
1.03445056323 4.03768654322 0.0
1.05324089605 4.04414741762 0.0
1.07185341958 4.05110377808 0.0
1.09027517391 4.0585507802 0.0
1.10849315734 4.06648316882 0.0
1.12649462563 4.07489539439 0.0
1.1442669209 4.08378154222 0.0
1.16179756906 4.0931353746 0.0
1.1790742871 4.10295033813 0.0
1.1960849082 4.11321952024 0.0
1.21281755802 4.12393575334 0.0
1.22926039879 4.13509145532 0.0
1.24540200269 4.14667887342 0.0
1.26123091585 4.15868978512 0.0
1.27673615785 4.17111585877 0.0
1.29190671097 4.18394826442 0.0
1.30673206073 4.19717810803 0.0
1.32120167579 4.21079599189 0.0
1.33530551541 4.22479246611 0.0
1.34903357612 4.23915760374 0.0
1.36237630898 4.25388141198 0.0
1.3753242847 4.26895348652 0.0
1.38786845609 4.28436329506 0.0
1.05632730172 4.43535283906 0.0
0.549964048968 4.4381053958 0.0
0.806135520676 4.28696690218 0.0
0.60389578305 4.23589310371 0.0
1.22984770884 4.35828704125 0.0
0.3703382852 4.35933552752 0.0
0.995322815839 4.23075031136 0.0
0.728315816804 4.1516935937 0.0
0.872128173905 4.14798724072 0.0
1.14059401893 4.24808468684 0.0
0.461553191009 4.24691671009 0.0
0.784706775856 4.54331390922 0.0
0.398287125272 4.55455970538 0.0
1.20625306554 4.55844743514 0.0
0.624100842742 4.1340824436 0.0
0.5257453845 4.16321776279 0.0
0.978502430793 4.12998737058 0.0
1.07419209812 4.16335154482 0.0
0.364313698077 4.26187035763 0.0
1.23509538257 4.26191716733 0.0
0.68124123937 4.36794548972 0.0
1.31679378691 4.32522066749 0.0
0.283206213094 4.32522066749 0.0
0.791498533126 4.08977141721 0.0
0.931481076052 4.3552344917 0.0
0.96671906557 4.60288042839 0.0
0.684451667517 4.08578036752 0.0
0.618335406951 4.60196910993 0.0
0.450982331762 4.17196171732 0.0
0.915674266355 4.08505633851 0.0
1.14900051594 4.17199012964 0.0
1.30193709687 4.4232448133 0.0
0.29857466761 4.42326296922 0.0
1.05734787542 4.32500107617 0.0
0.539273225177 4.32762599628 0.0
0.709896798149 4.25231026287 0.0
0.895708916005 4.24434194389 0.0
0.813273511364 4.41345766235 0.0
0.559289631452 4.10740879113 0.0
1.04001407307 4.10791539633 0.0
0.801161810585 4.20656244955 0.0
0.665113819616 4.49566650186 0.0
0.852577362173 4.06621846388 0.0
0.39025672787 4.1993806298 0.0
1.20974450479 4.19938104599 0.0
0.921542541183 4.50288058719 0.0
1.14030889032 4.33947344809 0.0
1.15600477272 4.44318538305 0.0
0.435243219029 4.4501581257 0.0
0.462045157798 4.34164654286 0.0
0.735806812738 4.05982269746 0.0
1.30082934537 4.27303772796 0.0
0.299170654625 4.27303772796 0.0
0.533651712118 4.23775983853 0.0
0.666130919144 4.19162131559 0.0
1.0676097303 4.23689469382 0.0
1.08054433577 4.56040946155 0.0
0.506773767255 4.54078295079 0.0
0.626745312844 4.07634420826 0.0
0.933845304214 4.1857954732 0.0
0.293717639664 4.52685000185 0.0
0.31250502208 4.63936411351 0.0
1.3058164124 4.52664930624 0.0
1.29054387065 4.63812765963 0.0
0.973467966326 4.07451619478 0.0
0.487935413164 4.12597084015 0.0
0.461549079751 4.66346834982 0.0
1.11203248746 4.12603503889 0.0
1.14453515393 4.68127370303 0.0
0.840217564202 4.66401146633 0.0
0.585347033288 4.18049048534 0.0
0.619177396637 4.31737576306 0.0
0.331644410315 4.22472190462 0.0
1.26835558968 4.22472190462 0.0
1.01536156978 4.17497473052 0.0
0.809331033562 4.04575709122 0.0
0.982321540791 4.30947358971 0.0
0.725600576914 4.64509651799 0.0
0.812291456186 4.14152942492 0.0
0.335887692543 4.31428235669 0.0
1.26344844681 4.31527131907 0.0
1.23449730504 4.46967441524 0.0
1.34334172096 4.38049551957 0.0
0.256658279045 4.38049551957 0.0
0.741646926828 4.31797908527 0.0
0.674799084703 4.14183768522 0.0
1.18647435526 4.28465189749 0.0
0.360563250284 4.47106479569 0.0
0.873716483853 4.31355499203 0.0
0.418704489949 4.28656264283 0.0
0.492670911224 4.20441614809 0.0
0.403480880356 4.16556776931 0.0
1.19651541215 4.1655686246 0.0
0.728649253738 4.43724546491 0.0
1.00883674467 4.37684664879 0.0
1.11035034557 4.20671841276 0.0
0.261968539765 4.2881079512 0.0
1.33803146023 4.2881079512 0.0
0.74649980488 4.1069354354 0.0
0.927597725248 4.1328597079 0.0
0.892956618256 4.05129338913 0.0
0.659794281787 4.05461387326 0.0
0.587663534405 4.06996537006 0.0
0.942353209926 4.05445300973 0.0
1.01493747319 4.06986013719 0.0
0.613130017774 4.38879803882 0.0
0.449373501074 4.12887191978 0.0
0.514840228377 4.09735850006 0.0
0.497057592 4.38843092106 0.0
1.15061382426 4.12889293084 0.0
1.08514419473 4.09738328152 0.0
0.745617635771 4.20608957592 0.0
0.875234522129 4.57363036549 0.0
0.855262884783 4.2009970831 0.0
1.01126200032 4.50790064162 0.0
1.09391916408 4.38142408872 0.0
1.04436265455 4.68992000827 0.0
0.314320181089 4.36283968607 0.0
1.28649331902 4.36253720145 0.0
0.771211579291 4.03826862024 0.0
0.432259099658 4.21516002157 0.0
0.698583889427 4.04654353526 0.0
1.16802128371 4.213962881 0.0
1.09587629216 4.2837676659 0.0
1.35920470355 4.33176960471 0.0
0.240795296449 4.33176960471 0.0
0.504003580654 4.28325758118 0.0
0.579942709371 4.5093075073 0.0
0.875915224914 4.10325792528 0.0
0.426503136644 4.38227733008 0.0
0.57541416445 4.27875301522 0.0
0.683877978289 4.30671848113 0.0
0.888061695889 4.42143509246 0.0
1.33987712478 4.47369249103 0.0
0.26012287522 4.47369249103 0.0
0.801393572636 4.34570096582 0.0
0.558460082533 4.70006728209 0.0
1.1741923373 4.38642830101 0.0
0.83220012886 4.10289415912 0.0
1.02815069622 4.27563276509 0.0
0.948308583502 4.2631204454 0.0
0.846588933095 4.48344596945 0.0
1.25632767671 4.40990360053 0.0
0.343666800815 4.40995820652 0.0
0.97849585731 4.44541535602 0.0
1.10170977548 4.49017265998 0.0
0.662193131828 4.24319398492 0.0
0.400503668388 4.24391657105 0.0
1.20117145985 4.23640427377 0.0
0.350957892513 4.19306558019 0.0
1.24904210749 4.19306558019 0.0
0.771964652188 4.16415379403 0.0
0.932165148285 4.70246281402 0.0
0.373672364094 4.70831357765 0.0
0.760245937722 4.25919350779 0.0
0.848718469252 4.03277763075 0.0
1.23385612561 4.7109294747 0.0
0.846421485813 4.25575918421 0.0
0.651597058631 4.10553284014 0.0
0.650489852551 4.69648045504 0.0
0.58457834847 4.13885088261 0.0
0.48701309933 4.16369927013 0.0
0.708495738406 4.56366947756 0.0
1.11203398596 4.16388062515 0.0
0.54865558244 4.07760047869 0.0
1.05126102377 4.07744629471 0.0
0.300013757486 4.23769646442 0.0
1.29998624251 4.23769646442 0.0
0.9465032388 4.10228070354 0.0
0.708587583337 4.11656095907 0.0
0.973348904468 4.17047871864 0.0
0.628721855632 4.17048356945 0.0
0.380175010019 4.31531880077 0.0
0.662092932411 4.43409041267 0.0
1.05133526787 4.19731992007 0.0
0.528087045766 4.61837882187 0.0
1.22233124543 4.31031693908 0.0
1.19001193434 4.33783586668 0.0
0.853024099244 4.37054003492 0.0
0.542800296246 4.19834366905 0.0
0.247706318737 4.42749119247 0.0
1.35229368126 4.42749119247 0.0
0.599153768578 4.10463797005 0.0
1.01616570494 4.13737683178 0.0
0.744705786938 4.38079544575 0.0
1.31929001115 4.71212550052 0.0
0.777615355331 4.12623602511 0.0
0.265621610877 4.58485488866 0.0
1.33132411895 4.58141378639 0.0
0.532023338888 4.12884454388 0.0
1.0697792195 4.12751429251 0.0
0.286371037106 4.70520312914 0.0
0.497725885905 4.47663668256 0.0
0.46053455822 4.29097947599 0.0
0.433799237968 4.52139400991 0.0
0.388624781906 4.62604200004 0.0
0.554823673752 4.37961940232 0.0
1.1421595646 4.29328301431 0.0
1.14760043966 4.59165103139 0.0
1.21258698805 4.62830200685 0.0
1.16279096046 4.50802621409 0.0
0.995762647814 4.10018772517 0.0
0.456229040627 4.58966685246 0.0
0.707289391156 4.19030271873 0.0
0.763036833302 4.71795445535 0.0
[...]
POINT_DATA 999
VECTORS Displacement float
-1.01518274444e-15 -0.027 0
3.81616572991e-16 -0.027 0
0.0 -0.027 0
0.0 -0.027 0
3.35148857632e-16 -0.027 0
2.93185865216e-16 -0.027 0
2.54271565881e-16 -0.027 0
2.15092180363e-16 -0.027 0
1.76999482591e-16 -0.027 0
1.39734810345e-16 -0.027 0
1.17625423852e-16 -0.027 0
1.03622721975e-16 -0.027 0
1.03565841572e-16 -0.027 0
8.3615415593e-17 -0.027 0
-5.14868578908e-17 -0.027 0
-5.80816037351e-16 -0.027 0
0.0 -0.027 0
0.0 -0.027 0
0.0 -0.027 0
0.0 -0.027 0
0.0 -0.027 0
0.0 -0.027 0
0.0 -0.027 0
0.0 -0.027 0
0.0 -0.027 0
0.0 -0.027 0
0.0 -0.027 0
0.0 -0.027 0
0.0 -0.027 0
0.0 -0.027 0
0.0 -0.027 0
0.0 -0.027 0
0.0 -0.027 0
5.54159247516e-16 -0.027 0
6.44473149104e-17 -0.027 0
-2.37504643066e-16 -0.027 0
-4.0821256244e-16 -0.027 0
-5.24715356255e-16 -0.027 0
-6.09437324686e-16 -0.027 0
-6.83643082533e-16 -0.027 0
-7.45650384312e-16 -0.027 0
-8.0388050479e-16 -0.027 0
-8.58716350628e-16 -0.027 0
-9.07105764438e-16 -0.027 0
-9.57105322532e-16 -0.027 0
-1.06182530644e-15 -0.027 0
-1.10960955533e-15 -0.027 0
-1.15467750717e-15 -0.027 0
-1.1959364231e-15 -0.027 0
-1.2344476847e-15 -0.027 0
-1.26688358698e-15 -0.027 0
-1.2929858246e-15 -0.027 0
-1.31268769907e-15 -0.027 0
-1.33142567839e-15 -0.027 0
-1.34449299215e-15 -0.027 0
-1.34882509728e-15 -0.027 0
-1.34533017772e-15 -0.027 0
-1.33919123343e-15 -0.027 0
-1.32724477256e-15 -0.027 0
-1.30909875368e-15 -0.027 0
-1.28611403386e-15 -0.027 0
-1.25831733723e-15 -0.027 0
-1.22322310497e-15 -0.027 0
-1.18478309112e-15 -0.027 0
-1.14112957873e-15 -0.027 0
-1.0932770011e-15 -0.027 0
-1.03888515718e-15 -0.027 0
-9.82847817849e-16 -0.027 0
-9.19892685272e-16 -0.027 0
-8.57023127424e-16 -0.027 0
-7.87210710479e-16 -0.027 0
-7.15322821276e-16 -0.027 0
-6.42876442471e-16 -0.027 0
-5.67575862693e-16 -0.027 0
-4.9055275477e-16 -0.027 0
-4.12562124187e-16 -0.027 0
-3.34948771302e-16 -0.027 0
-2.57608180965e-16 -0.027 0
-1.78691808252e-16 -0.027 0
-1.02499228439e-16 -0.027 0
-2.66574933008e-17 -0.027 0
4.50795110757e-17 -0.027 0
1.16801697494e-16 -0.027 0
1.86324512484e-16 -0.027 0
2.5169960325e-16 -0.027 0
3.18191137777e-16 -0.027 0
3.7932900626e-16 -0.027 0
4.37173809588e-16 -0.027 0
4.9040227912e-16 -0.027 0
5.39286554991e-16 -0.027 0
5.84683478119e-16 -0.027 0
6.26322458125e-16 -0.027 0
6.63035099304e-16 -0.027 0
6.93329332635e-16 -0.027 0
7.17916616188e-16 -0.027 0
7.38962916957e-16 -0.027 0
7.55641757095e-16 -0.027 0
7.6698747868e-16 -0.027 0
7.7320694022e-16 -0.027 0
7.71005757409e-16 -0.027 0
7.69946830981e-16 -0.027 0
7.59329592809e-16 -0.027 0
7.45514624496e-16 -0.027 0
7.28787283766e-16 -0.027 0
7.08872519039e-16 -0.027 0
6.85221851653e-16 -0.027 0
6.58358823177e-16 -0.027 0
6.31009679515e-16 -0.027 0
5.99014463256e-16 -0.027 0
5.6453014873e-16 -0.027 0
5.30952133659e-16 -0.027 0
4.91804915062e-16 -0.027 0
4.55598296982e-16 -0.027 0
4.17662932168e-16 -0.027 0
5.35971027607e-16 -0.027 0
-1.13427466692e-15 -0.027 0
-7.58054532901e-17 -0.027 0
-8.4477645262e-16 -0.027 0
3.33923792831e-16 -0.027 0
-9.94061806255e-16 -0.027 0
4.15047072064e-16 -0.027 0
-4.12166303478e-16 -0.027 0
9.49201487754e-17 -0.027 0
5.0627813419e-16 -0.027 0
-1.09101917461e-15 -0.027 0
1.52485343168e-16 -0.027 0
-5.99913445563e-16 -0.027 0
-3.87445060648e-17 -0.027 0
-7.6785676771e-16 -0.027 0
-1.02634025429e-15 -0.027 0
3.90959235221e-16 -0.027 0
5.38293517709e-16 -0.027 0
-1.11783171107e-15 -0.027 0
4.79738096814e-16 -0.027 0
-7.15404529763e-16 -0.027 0
3.4456617723e-16 -0.027 0
-9.86608177399e-16 -0.027 0
-1.75594522059e-16 -0.027 0
4.76815917544e-16 -0.027 0
1.05793373702e-15 -0.027 0
-5.628242556e-16 -0.027 0
-1.75844303721e-15 -0.027 0
-1.16115526619e-15 -0.027 0
2.43696967797e-16 -0.027 0
6.03257807717e-16 -0.027 0
2.095574195e-16 -0.027 0
-8.39312137405e-16 -0.027 0
4.95798511216e-16 -0.027 0
-1.02777779328e-15 -0.027 0
-5.00483108379e-16 -0.027 0
2.09647179608e-16 -0.027 0
1.36249368557e-16 -0.027 0
-9.6542167678e-16 -0.027 0
5.39602372241e-16 -0.027 0
-1.40454585949e-16 -0.027 0
-1.18461896711e-15 -0.027 0
4.86629060861e-17 -0.027 0
-1.20207783135e-15 -0.027 0
5.90153938291e-16 -0.027 0
1.00793023234e-15 -0.027 0
4.32172787035e-16 -0.027 0
2.9438649381e-16 -0.027 0
-9.52617675803e-16 -0.027 0
-1.05514020623e-15 -0.027 0
-3.72016125868e-16 -0.027 0
4.49393051354e-16 -0.027 0
-1.09764208944e-15 -0.027 0
-1.00036029569e-15 -0.027 0
-6.4060629398e-16 -0.027 0
4.90385667789e-16 -0.027 0
2.90405207502e-16 -0.027 0
-1.00099406203e-15 -0.027 0
-7.63877030453e-16 -0.027 0
2.78534908058e-16 -0.027 0
-6.47811356924e-16 -0.027 0
-3.53185265804e-16 -0.027 0
1.3161111856e-16 -0.027 0
1.39132134512e-16 -0.027 0
4.17857950576e-16 -0.027 0
-1.13507206159e-15 -0.027 0
-1.0931517156e-16 -0.027 0
6.36094916363e-16 -0.027 0
-5.53870027537e-16 -0.027 0
2.23467722867e-15 -0.027 0
-8.79698227857e-16 -0.027 0
-8.70955764338e-16 -0.027 0
-1.19664191148e-15 -0.027 0
5.54106711647e-16 -0.027 0
4.47390177644e-16 -0.027 0
-9.47141885835e-17 -0.027 0
4.64040586612e-16 -0.027 0
-1.7999351066e-15 -0.027 0
-1.08085011353e-16 -0.027 0
-1.03230610214e-15 -0.027 0
3.82120603348e-16 -0.027 0
1.71277657366e-16 -0.027 0
2.49631286545e-16 -0.027 0
-8.72202308047e-16 -0.027 0
-3.74945749996e-16 -0.027 0
-6.01324138301e-16 -0.027 0
4.59106099976e-16 -0.027 0
-8.14395192018e-16 -0.027 0
2.32670598041e-16 -0.027 0
-1.08273659528e-15 -0.027 0
-1.0730771914e-15 -0.027 0
-1.23941365813e-15 -0.027 0
6.50584946051e-16 -0.027 0
-5.45980664335e-16 -0.027 0
5.6169456126e-16 -0.027 0
5.35265643585e-16 -0.027 0
-1.05683418837e-15 -0.027 0
4.11783118884e-16 -0.027 0
-3.41891648236e-16 -0.027 0
2.6117309888e-16 -0.027 0
1.94320277582e-16 -0.027 0
-6.49989150079e-16 -0.027 0
-8.94225230436e-16 -0.027 0
3.47066624254e-16 -0.027 0
5.30114690208e-16 -0.027 0
-1.00192731584e-15 -0.027 0
-1.21450211723e-15 -0.027 0
-1.09291408295e-15 -0.027 0
-1.06726254131e-15 -0.027 0
6.78995243955e-16 -0.027 0
6.38039809579e-16 -0.027 0
-3.51948305551e-16 -0.027 0
1.40586888453e-15 -0.027 0
5.16055442725e-17 -0.027 0
7.06309782274e-16 -0.027 0
4.66949502244e-16 -0.027 0
-5.38930813148e-18 -0.027 0
-9.45394674104e-16 -0.027 0
2.96254298549e-16 -0.027 0
-2.32559297323e-16 -0.027 0
-1.14047234837e-15 -0.027 0
-5.0603057427e-16 -0.027 0
5.52640862143e-16 -0.027 0
4.84694401356e-16 -0.027 0
3.19733469667e-16 -0.027 0
-9.4820682049e-16 -0.027 0
-1.04398306292e-15 -0.027 0
-1.26240096134e-15 -0.027 0
1.12433503426e-16 -0.027 0
-1.01310835165e-15 -0.027 0
-9.38236954428e-16 -0.027 0
-6.35397401385e-16 -0.027 0
5.75884431155e-16 -0.027 0
1.53086952429e-16 -0.027 0
-7.17533155096e-16 -0.027 0
-4.67730787231e-17 -0.027 0
-6.46975539874e-16 -0.027 0
3.50345723583e-16 -0.027 0
-3.48341829099e-17 -0.027 0
4.6859376382e-16 -0.027 0
3.57866260476e-16 -0.027 0
6.47782850471e-16 -0.027 0
2.45288980567e-16 -0.027 0
-9.01242172656e-16 -0.027 0
7.18880617114e-16 -0.027 0
3.46540345582e-16 -0.027 0
-6.70842196098e-16 -0.027 0
-1.13246855817e-15 -0.027 0
5.25380756457e-16 -0.027 0
-1.25029523336e-15 -0.027 0
6.19287042027e-16 -0.027 0
-2.54113942738e-16 -0.027 0
8.56964953776e-16 -0.027 0
1.51974669388e-16 -0.027 0
-2.90933500049e-16 -0.027 0
5.52848717354e-17 -0.027 0
-8.68929948353e-17 -0.027 0
5.8501679065e-17 -0.027 0
-6.78275956594e-16 -0.027 0
-1.99333581962e-15 -0.027 0
-8.85576713128e-16 -0.027 0
-1.10669503262e-15 -0.027 0
-1.18946246715e-15 -0.027 0
5.8262792453e-16 -0.027 0
-1.01226533456e-15 -0.027 0
6.02960556008e-16 -0.027 0
-1.18130662596e-15 -0.027 0
5.27398492865e-16 -0.027 0
3.23828756016e-16 -0.027 0
-4.78118559155e-16 -0.027 0
3.69219974738e-16 -0.027 0
-7.57003255102e-16 -0.027 0
-1.04887052233e-15 -0.027 0
-9.50497389382e-16 -0.027 0
4.88752954385e-16 -0.027 0
-9.30230646913e-16 -0.027 0
4.07365119909e-16 -0.027 0
3.91656372184e-16 -0.027 0
2.64585892009e-16 -0.027 0
-9.82998422313e-16 -0.027 0
-7.85753768728e-16 -0.027 0
1.88504273889e-16 -0.027 0
-8.48563484091e-16 -0.027 0
4.66748662998e-16 -0.027 0
-3.71231548624e-16 -0.027 0
-5.88915498121e-17 -0.027 0
-2.32115182966e-16 -0.027 0
-4.87102550211e-16 -0.027 0
1.52994733294e-16 -0.027 0
-1.02718326342e-15 -0.027 0
5.70620617889e-16 -0.027 0
2.57143822397e-18 -0.027 0
-1.04879078625e-15 -0.027 0
-1.07043826315e-15 -0.027 0
-7.86824042885e-16 -0.027 0
-2.31744663877e-16 -0.027 0
-1.06416275455e-15 -0.027 0
4.67761810563e-16 -0.027 0
-1.60810296811e-16 -0.027 0
-2.98850222353e-16 -0.027 0
1.41284681805e-16 -0.027 0
4.50630115651e-16 -0.027 0
-5.60918829756e-16 -0.027 0
-4.93551609056e-16 -0.027 0
-4.62138521599e-16 -0.027 0
1.29056695777e-17 -0.027 0
3.68472911389e-16 -0.027 0
-1.25741670422e-15 -0.027 0
1.65783684003e-16 -0.027 0
6.93794418825e-16 -0.027 0
1.61467031637e-16 -0.027 0
-3.69728678446e-16 -0.027 0
-1.12573574081e-15 -0.027 0
4.8236631402e-16 -0.027 0
-1.2741931856e-15 -0.027 0
6.5999125515e-16 -0.027 0
-1.15221503888e-15 -0.027 0
-1.03353171911e-15 -0.027 0
-2.62274617252e-16 -0.027 0
-8.84160561721e-16 -0.027 0
-1.1729641388e-15 -0.027 0
5.42298999169e-16 -0.027 0
-7.75908658253e-16 -0.027 0
2.57025401825e-16 -0.027 0
3.3684589909e-16 -0.027 0
-1.13084442419e-15 -0.027 0
4.76942847905e-16 -0.027 0
2.38095173794e-17 -0.027 0
-9.28736953114e-16 -0.027 0
-1.00405082362e-15 -0.027 0
3.67533228759e-16 -0.027 0
-7.86026680117e-16 -0.027 0
-9.94945429434e-18 -0.027 0
-5.35103859097e-16 -0.027 0
6.0697718532e-17 -0.027 0
-1.05499929219e-15 -0.027 0
-4.58079624192e-16 -0.027 0
-1.20885497329e-16 -0.027 0
-6.26097653879e-17 -0.027 0
4.70158539103e-16 -0.027 0
5.05707162768e-16 -0.027 0
-7.92682116596e-16 -0.027 0
2.78243239638e-16 -0.027 0
4.52517023396e-16 -0.027 0
3.95222297528e-16 -0.027 0
-1.0284805346e-15 -0.027 0
3.81101863809e-16 -0.027 0
1.11422621555e-15 -0.027 0
-1.05541150875e-15 -0.027 0
-9.12797022651e-16 -0.027 0
5.040937568e-16 -0.027 0
-1.4931758541e-15 -0.027 0
6.16201156618e-16 -0.027 0
-1.17948180142e-15 -0.027 0
6.85595728409e-16 -0.027 0
-1.11582518194e-15 -0.027 0
5.56712914268e-16 -0.027 0
-6.31219227842e-16 -0.027 0
1.39026115471e-16 -0.027 0
-7.77570326482e-16 -0.027 0
4.58592917285e-16 -0.027 0
-9.62396930811e-16 -0.027 0
6.57590520114e-16 -0.027 0
1.40053562921e-16 -0.027 0
6.31314580751e-16 -0.027 0
2.75759947667e-16 -0.027 0
-8.94252122285e-16 -0.027 0
-1.19170676925e-15 -0.027 0
1.43782518661e-16 -0.027 0
6.08596411428e-16 -0.027 0
-5.73168467935e-16 -0.027 0
1.63494269184e-15 -0.027 0
-3.5790240578e-16 -0.027 0
5.21902516367e-16 -0.027 0
-9.85043465801e-16 -0.027 0
2.86311577143e-16 -0.027 0
-9.25093430759e-16 -0.027 0
8.91160663579e-17 -0.027 0
-6.90573287318e-16 -0.027 0
2.02328542827e-16 -0.027 0
4.93927181172e-16 -0.027 0
-5.89353445795e-16 -0.027 0
-1.40267944638e-16 -0.027 0
2.95500766427e-18 -0.027 0
-1.03037956841e-15 -0.027 0
-1.1079273755e-15 -0.027 0
-1.25347363185e-15 -0.027 0
6.10040991074e-16 -0.027 0
8.7272024605e-17 -0.027 0
2.31727392449e-16 -0.027 0
-2.13922253999e-17 -0.027 0
1.42339472188e-16 -0.027 0
-1.0721999128e-15 -0.027 0
4.27138121347e-16 -0.027 0
5.01511228727e-16 -0.027 0
-3.2157414588e-16 -0.027 0
-6.0184159093e-17 -0.027 0
4.07269399525e-16 -0.027 0
-1.23471608982e-15 -0.027 0
-6.98620566123e-16 -0.027 0
5.1567859445e-16 -0.027 0
4.82669714279e-16 -0.027 0
4.01430291327e-16 -0.027 0
4.3039462013e-16 -0.027 0
-8.60284015571e-16 -0.027 0
-8.28452442243e-16 -0.027 0
-6.77395970942e-16 -0.027 0
-7.79481779474e-16 -0.027 0
-9.91610683158e-16 -0.027 0
3.42058292119e-16 -0.027 0
-1.23219519662e-15 -0.027 0
5.79900807188e-16 -0.027 0
1.88845462834e-16 -0.027 0
4.70095175013e-16 -0.027 0
5.25920503271e-16 -0.027 0
3.25411407829e-16 -0.027 0
-1.0049784496e-15 -0.027 0
-4.06606770314e-16 -0.027 0
-1.0818320983e-15 -0.027 0
-1.00321110377e-15 -0.027 0
3.64042407382e-16 -0.027 0
1.70754793264e-15 -0.027 0
-1.06983593587e-15 -0.027 0
-1.15415542799e-15 -0.027 0
-1.04504339193e-15 -0.027 0
1.77978029371e-16 -0.027 0
3.46991181802e-16 -0.027 0
-1.08167218651e-15 -0.027 0
5.2294995667e-16 -0.027 0
-8.08968280876e-16 -0.027 0
-9.75837989279e-16 -0.027 0
6.27528797776e-16 -0.027 0
-2.06523318366e-15 -0.027 0
-3.22417191765e-16 -0.027 0
5.78703840298e-16 -0.027 0
-2.47375969712e-16 -0.027 0
-1.0761390998e-15 -0.027 0
5.98960503312e-16 -0.027 0
-1.03477816077e-15 -0.027 0
6.54444686006e-16 -0.027 0
-1.38502836647e-16 -0.027 0
-1.70731121196e-17 -0.027 0
-1.83247510181e-16 -0.027 0
2.18196395073e-16 -0.027 0
-8.22954106123e-16 -0.027 0
-8.58046125986e-16 -0.027 0
-7.31599514958e-16 -0.027 0
-2.55465386473e-15 -0.027 0
4.23254419371e-16 -0.027 0
5.2100805328e-16 -0.027 0
-1.16607267388e-15 -0.027 0
-1.22809009818e-15 -0.027 0
-5.1972649546e-16 -0.027 0
6.99484142295e-16 -0.027 0
7.18825247725e-16 -0.027 0
2.00801253837e-16 -0.027 0
4.80980736243e-16 -0.027 0
-1.85132857714e-16 -0.027 0
-2.98599633001e-16 -0.027 0
2.51942486329e-16 -0.027 0
-4.45158626583e-16 -0.027 0
-5.83537820046e-16 -0.027 0
3.71917190078e-16 -0.027 0
2.82814800945e-16 -0.027 0
-9.12525585297e-16 -0.027 0
-1.16342958605e-15 -0.027 0
-8.90273723923e-16 -0.027 0
2.53246445963e-16 -0.027 0
9.40383678369e-16 -0.027 0
-8.58241633433e-16 -0.027 0
2.83617208441e-17 -0.027 0
-3.98283701272e-18 -0.027 0
3.52296513569e-16 -0.027 0
-1.29513712822e-15 -0.027 0
7.02666535105e-16 -0.027 0
-9.88251098716e-16 -0.027 0
2.97752965874e-16 -0.027 0
5.12322849784e-16 -0.027 0
-8.17446886084e-16 -0.027 0
8.52575800787e-17 -0.027 0
-3.49753005687e-16 -0.027 0
-6.23323429588e-16 -0.027 0
-5.71699054885e-16 -0.027 0
-1.30609245053e-16 -0.027 0
-9.68654756045e-16 -0.027 0
-6.18437495291e-16 -0.027 0
4.18577765414e-17 -0.027 0
-1.86781774488e-16 -0.027 0
-5.7398431152e-16 -0.027 0
-1.02699426578e-15 -0.027 0
-1.21781475059e-15 -0.027 0
6.48752656321e-16 -0.027 0
5.91320694685e-16 -0.027 0
6.00466107574e-17 -0.027 0
-3.38789963251e-16 -0.027 0
-9.47863526267e-16 -0.027 0
1.98990440343e-16 -0.027 0
-8.41009166261e-16 -0.027 0
4.35791068672e-16 -0.027 0
4.1886238948e-16 -0.027 0
3.03582532512e-16 -0.027 0
-2.5794070266e-16 -0.027 0
2.2783621059e-16 -0.027 0
-1.03106714626e-15 -0.027 0
3.86930524348e-16 -0.027 0
-1.09203447977e-15 -0.027 0
4.43005732753e-16 -0.027 0
1.11135954545e-16 -0.027 0
-1.05866756348e-15 -0.027 0
-8.33048883385e-16 -0.027 0
7.76281188348e-17 -0.027 0
4.52928415974e-16 -0.027 0
3.89933121781e-16 -0.027 0
3.33720788182e-16 -0.027 0
-9.67667515984e-16 -0.027 0
3.3997647642e-16 -0.027 0
1.03702354419e-15 -0.027 0
6.1844086569e-16 -0.027 0
-1.08584696354e-15 -0.027 0
-1.08004199126e-15 -0.027 0
4.31795406482e-16 -0.027 0
-1.15847801114e-15 -0.027 0
-2.44274738178e-16 -0.027 0
5.55231462523e-16 -0.027 0
2.98492014206e-16 -0.027 0
-3.07345596942e-16 -0.027 0
-1.06067401754e-15 -0.027 0
6.11916305767e-16 -0.027 0
-1.21176680879e-15 -0.027 0
6.12423442219e-16 -0.027 0
8.71548256388e-16 -0.027 0
-1.08907240617e-15 -0.027 0
5.49355201204e-17 -0.027 0
-1.19095138491e-15 -0.027 0
5.32674284054e-16 -0.027 0
-4.45492585039e-16 -0.027 0
-1.26175907901e-15 -0.027 0
7.1709614752e-16 -0.027 0
-3.8564794268e-16 -0.027 0
-6.18878899855e-16 -0.027 0
-7.2140313779e-16 -0.027 0
-1.11867623229e-15 -0.027 0
-8.789638323e-16 -0.027 0
4.33720630972e-16 -0.027 0
4.72728250497e-16 -0.027 0
5.72954542265e-16 -0.027 0
1.10114405617e-16 -0.027 0
2.19141862875e-16 -0.027 0
-8.40594537636e-16 -0.027 0
-1.02863963049e-15 -0.027 0
-1.15300567052e-15 -0.027 0
5.13369847993e-16 -0.027 0
4.90377351987e-16 -0.027 0
-1.21023732764e-15 -0.027 0
5.76398391583e-16 -0.027 0
-7.33593150515e-16 -0.027 0
1.62169334447e-16 -0.027 0
-8.54881266271e-16 -0.027 0
7.76749554865e-16 -0.027 0
3.56195100938e-16 -0.027 0
7.79896853484e-16 -0.027 0
5.25189507834e-16 -0.027 0
8.53765675541e-17 -0.027 0
-9.39756983693e-16 -0.027 0
3.51583283413e-16 -0.027 0
6.6533125403e-16 -0.027 0
2.89369260927e-16 -0.027 0
-9.4835930772e-16 -0.027 0
-1.10288392885e-15 -0.027 0
-1.06742965547e-15 -0.027 0
3.38118041867e-16 -0.027 0
-8.71063872811e-16 -0.027 0
1.47519703789e-16 -0.027 0
5.77473777096e-16 -0.027 0
4.97197833397e-16 -0.027 0
-5.18146088732e-16 -0.027 0
5.11111563611e-16 -0.027 0
-7.22448536196e-16 -0.027 0
4.91893233925e-16 -0.027 0
3.93798818697e-16 -0.027 0
1.49993548494e-15 -0.027 0
-9.33831598315e-16 -0.027 0
-2.56636906575e-16 -0.027 0
-1.5075918507e-15 -0.027 0
-1.28154853392e-15 -0.027 0
-9.59993665798e-16 -0.027 0
-4.5554259632e-16 -0.027 0
-7.74601733979e-16 -0.027 0
-1.10321503271e-15 -0.027 0
3.95469998468e-16 -0.027 0
4.74890183925e-16 -0.027 0
-9.23413028544e-16 -0.027 0
3.03653183507e-16 -0.027 0
1.77865539193e-16 -0.027 0
-7.75961435375e-16 -0.027 0
-2.04269144914e-16 -0.027 0
-4.04835907369e-16 -0.027 0
-1.18169283121e-15 -0.027 0
2.68299792587e-16 -0.027 0
5.43471280154e-16 -0.027 0
-4.4471090347e-16 -0.027 0
3.50215209191e-16 -0.027 0
1.42012640397e-16 -0.027 0
5.07205855458e-16 -0.027 0
4.07302618021e-16 -0.027 0
-1.11330776125e-15 -0.027 0
2.6700308831e-16 -0.027 0
6.67937693814e-16 -0.027 0
-1.29369158026e-15 -0.027 0
6.68112552242e-16 -0.027 0
-1.8511830384e-16 -0.027 0
4.89183153263e-16 -0.027 0
1.27388687214e-15 -0.027 0
1.77884316348e-16 -0.027 0
7.98618773448e-16 -0.027 0
-1.09213777519e-15 -0.027 0
5.12066484186e-16 -0.027 0
-9.60013236168e-16 -0.027 0
7.70588654105e-16 -0.027 0
-1.08491748674e-15 -0.027 0
4.37159479763e-16 -0.027 0
-2.48883957709e-16 -0.027 0
5.22761847023e-16 -0.027 0
1.32542077381e-16 -0.027 0
-5.2856333336e-16 -0.027 0
-5.23030284812e-16 -0.027 0
-9.24957681631e-16 -0.027 0
-5.02426247041e-17 -0.027 0
-8.28776774798e-16 -0.027 0
5.33512939353e-16 -0.027 0
4.73975077328e-16 -0.027 0
-1.01403873152e-15 -0.027 0
-6.34440306473e-17 -0.027 0
1.38468339855e-16 -0.027 0
-6.64091186758e-16 -0.027 0
-4.27604117629e-16 -0.027 0
2.60995890065e-16 -0.027 0
-6.62457388312e-16 -0.027 0
-6.60149693886e-16 -0.027 0
-8.7931837225e-16 -0.027 0
-1.88394971898e-16 -0.027 0
-6.61988044895e-16 -0.027 0
-5.09900263729e-16 -0.027 0
2.1811366207e-16 -0.027 0
1.10311290953e-16 -0.027 0
3.77385891851e-16 -0.027 0
-1.0575401468e-15 -0.027 0
4.71846505006e-16 -0.027 0
5.56645616779e-16 -0.027 0
3.3865351672e-16 -0.027 0
-1.16312116162e-15 -0.027 0
5.18040131367e-16 -0.027 0
-1.1845072419e-15 -0.027 0
-4.0332549749e-16 -0.027 0
1.46829808003e-16 -0.027 0
-1.8686181812e-16 -0.027 0
-8.49419177723e-16 -0.027 0
2.41878676874e-16 -0.027 0
-1.13161047078e-15 -0.027 0
4.85662979376e-16 -0.027 0
6.39078866799e-16 -0.027 0
-1.03217197956e-15 -0.027 0
-1.18295136221e-15 -0.027 0
1.03729639975e-15 -0.027 0
-8.41793484804e-16 -0.027 0
4.49517846949e-16 -0.027 0
-1.00502697025e-16 -0.027 0
2.46906790542e-16 -0.027 0
-6.48241715267e-16 -0.027 0
1.65938751055e-17 -0.027 0
-9.95432634937e-17 -0.027 0
-1.35534072401e-16 -0.027 0
-8.36170489205e-16 -0.027 0
-1.13290511194e-15 -0.027 0
4.5218879756e-16 -0.027 0
3.95349897401e-17 -0.027 0
4.92476531325e-16 -0.027 0
4.18716740571e-16 -0.027 0
-2.70421239828e-16 -0.027 0
-1.00823270696e-15 -0.027 0
3.74795748754e-16 -0.027 0
6.53755039537e-16 -0.027 0
-1.29549987856e-15 -0.027 0
7.23514835782e-16 -0.027 0
-1.05717530008e-15 -0.027 0
3.55413374391e-16 -0.027 0
-9.26891140833e-16 -0.027 0
-1.13133157991e-15 -0.027 0
5.71704195173e-16 -0.027 0
4.71613809212e-16 -0.027 0
-7.55295074404e-17 -0.027 0
6.90682295777e-16 -0.027 0
-1.17039794919e-15 -0.027 0
5.50776853452e-16 -0.027 0
5.43804974907e-17 -0.027 0
-4.55359666775e-16 -0.027 0
-1.13998569268e-15 -0.027 0
4.87738717294e-16 -0.027 0
2.96190060607e-16 -0.027 0
-1.14170546156e-15 -0.027 0
4.84391141498e-16 -0.027 0
5.50613527548e-16 -0.027 0
4.52009388502e-16 -0.027 0
2.0384920305e-15 -0.027 0
-1.30949787991e-15 -0.027 0
6.99219634641e-16 -0.027 0
4.49541306069e-16 -0.027 0
-1.07718605259e-15 -0.027 0
-1.24381162711e-15 -0.027 0
6.2495435424e-16 -0.027 0
-1.30795903073e-15 -0.027 0
-1.0507130324e-15 -0.027 0
4.08772045021e-16 -0.027 0
-9.3700033606e-16 -0.027 0
-6.87122400438e-16 -0.027 0
-1.13960127486e-15 -0.027 0
5.08930777936e-16 -0.027 0
-1.15124306578e-15 -0.027 0
-1.0315587854e-15 -0.027 0
4.53949753034e-16 -0.027 0
-1.08651981231e-15 -0.027 0
-1.95506030573e-16 -0.027 0
-1.0399711595e-15 -0.027 0
6.42015705997e-16 -0.027 0