# vtk DataFile Version 2.0
Generated with Solid Solver
ASCII
DATASET UNSTRUCTURED_GRID
POINTS 999 float 
0.2 4.3001 0.0
1.4 4.3001 0.0
1.4 4.8001 0.0
0.2 4.8001 0.0
1.4 4.32033264049 0.0
1.4 4.34261203886 0.0
1.4 4.36714525371 0.0
1.4 4.3941602782 0.0
1.4 4.42390817466 0.0
1.4 4.45666541084 0.0
1.4 4.49273640748 0.0
1.4 4.5324564007 0.0
1.4 4.57619451608 0.0
1.4 4.62435723872 0.0
1.4 4.67739217343 0.0
1.4 4.73579218095 0.0
1.33333333333 4.8001 0.0
1.26666666667 4.8001 0.0
1.2 4.8001 0.0
1.13333333333 4.8001 0.0
1.06666666667 4.8001 0.0
1.0 4.8001 0.0
0.933333333334 4.8001 0.0
0.866666666668 4.8001 0.0
0.800000000001 4.8001 0.0
0.733333333334 4.8001 0.0
0.666666666668 4.8001 0.0
0.600000000001 4.8001 0.0
0.533333333334 4.8001 0.0
0.466666666667 4.8001 0.0
0.4 4.8001 0.0
0.333333333334 4.8001 0.0
0.266666666667 4.8001 0.0
0.2 4.73579218095 0.0
0.2 4.67739217343 0.0
0.2 4.62435723872 0.0
0.2 4.57619451608 0.0
0.2 4.5324564007 0.0
0.2 4.49273640748 0.0
0.2 4.45666541084 0.0
0.2 4.42390817466 0.0
0.2 4.3941602782 0.0
0.2 4.36714525371 0.0
0.2 4.34261203886 0.0
0.2 4.32033264049 0.0
0.212131543907 4.28436329506 0.0
0.224675715302 4.26895348652 0.0
0.23762369102 4.25388141198 0.0
0.250966423879 4.23915760374 0.0
0.264694484585 4.22479246611 0.0
0.278798324214 4.21079599189 0.0
0.293267939266 4.19717810803 0.0
0.308093289028 4.18394826442 0.0
0.323263842145 4.17111585877 0.0
0.338769084145 4.15868978512 0.0
0.354597997314 4.14667887342 0.0
0.37073960121 4.13509145532 0.0
0.387182441982 4.12393575334 0.0
0.403915091795 4.11321952025 0.0
0.420925712897 4.10295033813 0.0
0.438202430937 4.09313537461 0.0
0.455733079095 4.08378154223 0.0
0.473505374364 4.07489539439 0.0
0.491506842655 4.06648316882 0.0
0.509724826085 4.0585507802 0.0
0.528146580414 4.05110377808 0.0
0.546759103951 4.04414741762 0.0
0.56554943677 4.03768654322 0.0
0.584504260001 4.03172573401 0.0
0.60361041518 4.0262691282 0.0
0.622854334779 4.02132060039 0.0
0.642222678753 4.01688358113 0.0
0.661701681839 4.01296122392 0.0
0.681277836375 4.00955624851 0.0
0.700937245817 4.00667107217 0.0
0.720666255912 4.00430769845 0.0
0.740450894784 4.00246780161 0.0
0.76027736978 4.00115266363 0.0
0.780131702711 4.00036321235 0.0
0.799999999998 4.0001 0.0
0.819868297285 4.00036321235 0.0
0.839722630216 4.00115266363 0.0
0.859549105212 4.00246780161 0.0
0.879333744085 4.00430769845 0.0
0.89906275418 4.00667107217 0.0
0.918722163621 4.00955624851 0.0
0.938298318157 4.01296122392 0.0
0.957777321244 4.01688358113 0.0
0.977145665218 4.02132060039 0.0
0.996389584817 4.0262691282 0.0
1.01549574 4.03172573401 0.0
1.03445056323 4.03768654322 0.0
1.05324089605 4.04414741762 0.0
1.07185341958 4.05110377808 0.0
1.09027517391 4.0585507802 0.0
1.10849315734 4.06648316882 0.0
1.12649462563 4.07489539439 0.0
1.1442669209 4.08378154222 0.0
1.16179756906 4.0931353746 0.0
1.1790742871 4.10295033813 0.0
1.1960849082 4.11321952024 0.0
1.21281755802 4.12393575334 0.0
1.22926039879 4.13509145532 0.0
1.24540200269 4.14667887342 0.0
1.26123091585 4.15868978512 0.0
1.27673615785 4.17111585877 0.0
1.29190671097 4.18394826442 0.0
1.30673206073 4.19717810803 0.0
1.32120167579 4.21079599189 0.0
1.33530551541 4.22479246611 0.0
1.34903357612 4.23915760374 0.0
1.36237630898 4.25388141198 0.0
1.3753242847 4.26895348652 0.0
1.38786845609 4.28436329506 0.0
1.05632730172 4.43535283906 0.0
0.549964048968 4.4381053958 0.0
0.806135520676 4.28696690218 0.0
0.60389578305 4.23589310371 0.0
1.22984770884 4.35828704125 0.0
0.3703382852 4.35933552752 0.0
0.995322815839 4.23075031136 0.0
0.728315816804 4.1516935937 0.0
0.872128173905 4.14798724072 0.0
1.14059401893 4.24808468684 0.0
0.461553191009 4.24691671009 0.0
0.784706775856 4.54331390922 0.0
0.398287125272 4.55455970538 0.0
1.20625306554 4.55844743514 0.0
0.624100842742 4.1340824436 0.0
0.5257453845 4.16321776279 0.0
0.978502430793 4.12998737058 0.0
1.07419209812 4.16335154482 0.0
0.364313698077 4.26187035763 0.0
1.23509538257 4.26191716733 0.0
0.68124123937 4.36794548972 0.0
1.31679378691 4.32522066749 0.0
0.283206213094 4.32522066749 0.0
0.791498533126 4.08977141721 0.0
0.931481076052 4.3552344917 0.0
0.96671906557 4.60288042839 0.0
0.684451667517 4.08578036752 0.0
0.618335406951 4.60196910993 0.0
0.450982331762 4.17196171732 0.0
0.915674266355 4.08505633851 0.0
1.14900051594 4.17199012964 0.0
1.30193709687 4.4232448133 0.0
0.29857466761 4.42326296922 0.0
1.05734787542 4.32500107617 0.0
0.539273225177 4.32762599628 0.0
0.709896798149 4.25231026287 0.0
0.895708916005 4.24434194389 0.0
0.813273511364 4.41345766235 0.0
0.559289631452 4.10740879113 0.0
1.04001407307 4.10791539633 0.0
0.801161810585 4.20656244955 0.0
0.665113819616 4.49566650186 0.0
0.852577362173 4.06621846388 0.0
0.39025672787 4.1993806298 0.0
1.20974450479 4.19938104599 0.0
0.921542541183 4.50288058719 0.0
1.14030889032 4.33947344809 0.0
1.15600477272 4.44318538305 0.0
0.435243219029 4.4501581257 0.0
0.462045157798 4.34164654286 0.0
0.735806812738 4.05982269746 0.0
1.30082934537 4.27303772796 0.0
0.299170654625 4.27303772796 0.0
0.533651712118 4.23775983853 0.0
0.666130919144 4.19162131559 0.0
1.0676097303 4.23689469382 0.0
1.08054433577 4.56040946155 0.0
0.506773767255 4.54078295079 0.0
0.626745312844 4.07634420826 0.0
0.933845304214 4.1857954732 0.0
0.293717639664 4.52685000185 0.0
0.31250502208 4.63936411351 0.0
1.3058164124 4.52664930624 0.0
1.29054387065 4.63812765963 0.0
0.973467966326 4.07451619478 0.0
0.487935413164 4.12597084015 0.0
0.461549079751 4.66346834982 0.0
1.11203248746 4.12603503889 0.0
1.14453515393 4.68127370303 0.0
0.840217564202 4.66401146633 0.0
0.585347033288 4.18049048534 0.0
0.619177396637 4.31737576306 0.0
0.331644410315 4.22472190462 0.0
1.26835558968 4.22472190462 0.0
1.01536156978 4.17497473052 0.0
0.809331033562 4.04575709122 0.0
0.982321540791 4.30947358971 0.0
0.725600576914 4.64509651799 0.0
0.812291456186 4.14152942492 0.0
0.335887692543 4.31428235669 0.0
1.26344844681 4.31527131907 0.0
1.23449730504 4.46967441524 0.0
1.34334172096 4.38049551957 0.0
0.256658279045 4.38049551957 0.0
0.741646926828 4.31797908527 0.0
0.674799084703 4.14183768522 0.0
1.18647435526 4.28465189749 0.0
0.360563250284 4.47106479569 0.0
0.873716483853 4.31355499203 0.0
0.418704489949 4.28656264283 0.0
0.492670911224 4.20441614809 0.0
0.403480880356 4.16556776931 0.0
1.19651541215 4.1655686246 0.0
0.728649253738 4.43724546491 0.0
1.00883674467 4.37684664879 0.0
1.11035034557 4.20671841276 0.0
0.261968539765 4.2881079512 0.0
1.33803146023 4.2881079512 0.0
0.74649980488 4.1069354354 0.0
0.927597725248 4.1328597079 0.0
0.892956618256 4.05129338913 0.0
0.659794281787 4.05461387326 0.0
0.587663534405 4.06996537006 0.0
0.942353209926 4.05445300973 0.0
1.01493747319 4.06986013719 0.0
0.613130017774 4.38879803882 0.0
0.449373501074 4.12887191978 0.0
0.514840228377 4.09735850006 0.0
0.497057592 4.38843092106 0.0
1.15061382426 4.12889293084 0.0
1.08514419473 4.09738328152 0.0
0.745617635771 4.20608957592 0.0
0.875234522129 4.57363036549 0.0
0.855262884783 4.2009970831 0.0
1.01126200032 4.50790064162 0.0
1.09391916408 4.38142408872 0.0
1.04436265455 4.68992000827 0.0
0.314320181089 4.36283968607 0.0
1.28649331902 4.36253720145 0.0
0.771211579291 4.03826862024 0.0
0.432259099658 4.21516002157 0.0
0.698583889427 4.04654353526 0.0
1.16802128371 4.213962881 0.0
1.09587629216 4.2837676659 0.0
1.35920470355 4.33176960471 0.0
0.240795296449 4.33176960471 0.0
0.504003580654 4.28325758118 0.0
0.579942709371 4.5093075073 0.0
0.875915224914 4.10325792528 0.0
0.426503136644 4.38227733008 0.0
0.57541416445 4.27875301522 0.0
0.683877978289 4.30671848113 0.0
0.888061695889 4.42143509246 0.0
1.33987712478 4.47369249103 0.0
0.26012287522 4.47369249103 0.0
0.801393572636 4.34570096582 0.0
0.558460082533 4.70006728209 0.0
1.1741923373 4.38642830101 0.0
0.83220012886 4.10289415912 0.0
1.02815069622 4.27563276509 0.0
0.948308583502 4.2631204454 0.0
0.846588933095 4.48344596945 0.0
1.25632767671 4.40990360053 0.0
0.343666800815 4.40995820652 0.0
0.97849585731 4.44541535602 0.0
1.10170977548 4.49017265998 0.0
0.662193131828 4.24319398492 0.0
0.400503668388 4.24391657105 0.0
1.20117145985 4.23640427377 0.0
0.350957892513 4.19306558019 0.0
1.24904210749 4.19306558019 0.0
0.771964652188 4.16415379403 0.0
0.932165148285 4.70246281402 0.0
0.373672364094 4.70831357765 0.0
0.760245937722 4.25919350779 0.0
0.848718469252 4.03277763075 0.0
1.23385612561 4.7109294747 0.0
0.846421485813 4.25575918421 0.0
0.651597058631 4.10553284014 0.0
0.650489852551 4.69648045504 0.0
0.58457834847 4.13885088261 0.0
0.48701309933 4.16369927013 0.0
0.708495738406 4.56366947756 0.0
1.11203398596 4.16388062515 0.0
0.54865558244 4.07760047869 0.0
1.05126102377 4.07744629471 0.0
0.300013757486 4.23769646442 0.0
1.29998624251 4.23769646442 0.0
0.9465032388 4.10228070354 0.0
0.708587583337 4.11656095907 0.0
0.973348904468 4.17047871864 0.0
0.628721855632 4.17048356945 0.0
0.380175010019 4.31531880077 0.0
0.662092932411 4.43409041267 0.0
1.05133526787 4.19731992007 0.0
0.528087045766 4.61837882187 0.0
1.22233124543 4.31031693908 0.0
1.19001193434 4.33783586668 0.0
0.853024099244 4.37054003492 0.0
0.542800296246 4.19834366905 0.0
0.247706318737 4.42749119247 0.0
1.35229368126 4.42749119247 0.0
0.599153768578 4.10463797005 0.0
1.01616570494 4.13737683178 0.0
0.744705786938 4.38079544575 0.0
1.31929001115 4.71212550052 0.0
0.777615355331 4.12623602511 0.0
0.265621610877 4.58485488866 0.0
1.33132411895 4.58141378639 0.0
0.532023338888 4.12884454388 0.0
1.0697792195 4.12751429251 0.0
0.286371037106 4.70520312914 0.0
0.497725885905 4.47663668256 0.0
0.46053455822 4.29097947599 0.0
0.433799237968 4.52139400991 0.0
0.388624781906 4.62604200004 0.0
0.554823673752 4.37961940232 0.0
1.1421595646 4.29328301431 0.0
1.14760043966 4.59165103139 0.0
1.21258698805 4.62830200685 0.0
1.16279096046 4.50802621409 0.0
0.995762647814 4.10018772517 0.0
0.456229040627 4.58966685246 0.0
0.707289391156 4.19030271873 0.0
0.763036833302 4.71795445535 0.0
[...]
POINT_DATA 999
VECTORS Displacement float
-0.000317955693044 -0.0311861978807 0
0.000312019636111 -0.0311902349321 0
0.0 -0.0315 0
0.0 -0.0315 0
0.000329148679509 -0.0311885936094 0
0.000345906630856 -0.0311860653545 0
0.000360872690078 -0.0311827222045 0
0.000373186867223 -0.0311800253121 0
0.000379648446373 -0.0311789026373 0
0.000382418947115 -0.0311802916833 0
0.000376002655346 -0.0311850665745 0
0.000359408765673 -0.0311942732265 0
0.00033098931376 -0.0312119995727 0
0.000285862100716 -0.0312410157733 0
0.000222151003717 -0.0312879474332 0
0.000132510572456 -0.0313635083721 0
0.0 -0.0315 0
0.0 -0.0315 0
0.0 -0.0315 0
0.0 -0.0315 0
0.0 -0.0315 0
0.0 -0.0315 0
0.0 -0.0315 0
0.0 -0.0315 0
0.0 -0.0315 0
0.0 -0.0315 0
0.0 -0.0315 0
0.0 -0.0315 0
0.0 -0.0315 0
0.0 -0.0315 0
0.0 -0.0315 0
0.0 -0.0315 0
0.0 -0.0315 0
-0.000132411724108 -0.031363313106 0
-0.000222634471755 -0.0312872753345 0
-0.000289469708515 -0.0312393641172 0
-0.000333763913542 -0.0312093248505 0
-0.000362404944953 -0.0311910850016 0
-0.000379646525046 -0.0311815741608 0
-0.00038653632029 -0.0311767119094 0
-0.000384136904383 -0.0311752071532 0
-0.00037801432937 -0.0311762213444 0
-0.000366016677969 -0.0311788223285 0
-0.0003513474938 -0.0311820945586 0
-0.000334857135647 -0.0311845774288 0
-0.000304082464486 -0.0311776166885 0
-0.000288810817875 -0.0311683347784 0
-0.000272185480084 -0.0311575931165 0
-0.000253931034342 -0.0311453457643 0
-0.000234216498995 -0.0311310868241 0
-0.000213526901974 -0.0311144537329 0
-0.000191734310541 -0.031095765053 0
-0.000168100445606 -0.0310747624218 0
-0.000143146626841 -0.0310500908436 0
-0.000117807906805 -0.0310235719721 0
-9.11324634446e-05 -0.0309936289183 0
-6.27418432516e-05 -0.030960433917 0
-3.38950917349e-05 -0.0309231249054 0
-3.75494285714e-06 -0.0308821816322 0
2.73199741404e-05 -0.0308370770763 0
5.96371651621e-05 -0.0307870969012 0
9.23278635877e-05 -0.030731787747 0
0.00012705488635 -0.0306710299761 0
0.000161789077606 -0.0306034535217 0
0.000198544807203 -0.0305281489089 0
0.000234671997479 -0.0304446050769 0
0.000274351506073 -0.0303511787536 0
0.000312674614272 -0.0302449220398 0
0.000354736146226 -0.0301240755005 0
0.000396247050914 -0.0299845496885 0
0.000444954409598 -0.02981429852 0
0.000485456979472 -0.0296022390147 0
0.000524371453657 -0.029281195163 0
0.000521396326997 -0.0289881964223 0
0.000481201737093 -0.0287278999253 0
0.00041687897684 -0.0285194795363 0
0.000325411261912 -0.0283527982884 0
0.000226118400256 -0.0282340931651 0
0.000117439480585 -0.0281644010271 0
-1.02465991179e-05 -0.0281353991026 0
-0.000128646077526 -0.0281630184676 0
-0.000241054010256 -0.0282367530773 0
-0.000341712057569 -0.0283536671676 0
-0.000427775591816 -0.0285180442252 0
-0.000492944559792 -0.0287269715857 0
-0.00053875282228 -0.0289885269707 0
-0.000539234039755 -0.0292909619977 0
-0.000495997871563 -0.0296018403686 0
-0.000454206564308 -0.0298170628724 0
-0.000406225138272 -0.0299867070438 0
-0.000364897471212 -0.0301264743774 0
-0.000322627221245 -0.0302473933854 0
-0.000283933711115 -0.0303531402447 0
-0.000244319372958 -0.0304464139948 0
-0.00020804929998 -0.0305301254182 0
-0.000171194333587 -0.0306055757079 0
-0.000136286338033 -0.0306733229497 0
-0.000101343961048 -0.030734236346 0
-6.84353153932e-05 -0.0307896644413 0
-3.59122970846e-05 -0.0308397463095 0
-4.64148575809e-06 -0.0308849438812 0
2.56820860622e-05 -0.0309259809222 0
5.47073652073e-05 -0.0309633919025 0
8.32793460113e-05 -0.0309966964281 0
0.000110143929385 -0.0310267485362 0
0.000135678643306 -0.0310533705613 0
0.000160819852345 -0.0310781295458 0
0.000184631030622 -0.0310992071549 0
0.000206592321061 -0.0311179701339 0
0.000227451421941 -0.0311346796413 0
0.000247330502799 -0.031149014436 0
0.00026574865034 -0.0311613422772 0
0.000282538499987 -0.0311721692785 0
0.000297975325435 -0.031181544836 0
0.000298560599906 -0.0308246603737 0
-0.000297038941236 -0.0308184073304 0
7.90598796836e-06 -0.02994157027 0
-0.000267313004137 -0.0302294808126 0
0.000352939937754 -0.0310214337115 0
-0.000357974150942 -0.0310192922583 0
0.000257807525933 -0.030215001012 0
-0.000124036486539 -0.0293460001245 0
0.000112374410207 -0.0293293115618 0
0.000273468919224 -0.030763127538 0
-0.000279009319674 -0.0307536517052 0
-1.84225385645e-05 -0.0308803947733 0
-0.000303510988367 -0.0311841031412 0
0.000299026890356 -0.031193519513 0
-0.000148193361476 -0.0299033317556 0
-0.00016158622719 -0.0304753559554 0
0.000127855402418 -0.0299166409086 0
0.000154247474126 -0.0304770156005 0
-0.000284894229692 -0.0309856420776 0
0.000278482588198 -0.030987299308 0
-0.000191730986491 -0.0303965009047 0
0.000334757558248 -0.0311177168282 0
-0.000340306323856 -0.0311144712759 0
-1.03015468057e-05 -0.0287674263653 0
0.000206138123871 -0.0303791401079 0
0.000145195059687 -0.0310985924795 0
-4.16708447943e-05 -0.0292859849491 0
-0.000159235458928 -0.0311048629594 0
-0.000154547748107 -0.0307533648464 0
2.98407102726e-05 -0.0292856580343 0
0.000146998838055 -0.0307557979906 0
0.00037415738282 -0.0311369123858 0
-0.000378366871902 -0.0311339448209 0
0.000312918815328 -0.030616409035 0
-0.000319558176641 -0.0306283939408 0
-0.000169460138754 -0.029899836023 0
0.000171378762823 -0.0298826645226 0
1.95686313419e-05 -0.0304597924754 0
-2.37308409995e-05 -0.0302867474437 0
1.6603618064e-05 -0.0302843580058 0
-2.26677040895e-06 -0.0295285745795 0
-0.000169825549775 -0.0308033587159 0
-2.61919374e-05 -0.0287234329283 0
-0.00019762414094 -0.0309199621567 0
0.000190361283235 -0.030922781839 0
0.000149141650114 -0.0308118552363 0
0.000337607959877 -0.0308427642013 0
0.000342422463327 -0.0309961926475 0
-0.000348008710495 -0.031014913811 0
-0.000342657865332 -0.0308375677598 0
3.80037282584e-05 -0.0287429538341 0
0.000287533101454 -0.0310921792739 0
-0.000293754533519 -0.0310889006566 0
-0.000277615563398 -0.0305103550678 0
-0.000211831342156 -0.0298196183792 0
0.000269711099884 -0.0305162761511 0
0.000246536996215 -0.0310957229504 0
-0.000269386702037 -0.0310711001794 0
4.07994630039e-05 -0.0297977579636 0
0.00020035497312 -0.0298002740628 0
-0.00035013394384 -0.0312033372303 0
-0.00024121287525 -0.0313107889318 0
0.000347413071434 -0.0312053789214 0
0.000242339063929 -0.0313106315372 0
-6.030559222e-05 -0.0297990702967 0
-4.89904314365e-05 -0.0306193887239 0
-0.000178059047555 -0.0313035968013 0
4.06607110505e-05 -0.0306215840495 0
0.000159295672249 -0.0313336269034 0
2.80613599618e-05 -0.0312043847671 0
-0.000218195678405 -0.0302084763056 0
-0.000271836577562 -0.0303840107077 0
-0.000233696203895 -0.0310368727187 0
0.000226868466433 -0.0310400381541 0
0.000201155483859 -0.0302046708509 0
-2.1612946106e-05 -0.0284451911002 0
0.000267136407303 -0.0303690078361 0
-5.82799583887e-05 -0.0311638365219 0
1.57866606299e-05 -0.029133388038 0
-0.000333510406875 -0.0310476363364 0
0.000328566820606 -0.0310499070903 0
0.000356815271326 -0.031116532443 0
0.000366814580974 -0.0311505740969 0
-0.000371717741454 -0.0311473309336 0
-0.000108281474412 -0.0301181679059 0
-0.00016333812438 -0.029586419437 0
0.000306082815937 -0.0308986390358 0
-0.000361838454377 -0.0311200358305 0
0.000130064602668 -0.0301228054241 0
-0.00031419725261 -0.0308861856348 0
-0.00022806825115 -0.0306286377756 0
-0.000132663948544 -0.0308847271281 0
0.000124956863174 -0.030887401226 0
-0.000106391845935 -0.0305711924164 0
0.000280619816568 -0.0306046851421 0
0.000223655265129 -0.0306426013031 0
-0.000308184825847 -0.0311327402481 0
0.000302124825312 -0.0311362440027 0
-6.06547174473e-05 -0.0290007028953 0
0.000143673337681 -0.0295694579789 0
-0.000109036307376 -0.0289081658521 0
0.000118985586884 -0.0294240558614 0
0.000116719066995 -0.0301038159906 0
-0.00013353569821 -0.0294489532212 0
-0.000128522785998 -0.0301238872443 0
-0.000262927232567 -0.0305879672522 0
-4.83283015833e-05 -0.0307534635873 0
3.69524754831e-05 -0.0305074517544 0
-0.000337545512332 -0.0308264532663 0
4.00450240724e-05 -0.0307559180739 0
-4.61894196383e-05 -0.0305093285428 0
-0.00010929124007 -0.029589428366 0
7.71575374691e-05 -0.0309794826607 0
0.000103583406447 -0.0295652588257 0
0.000231713506713 -0.0309177295763 0
0.000329449630426 -0.0307987177929 0
0.000122209010186 -0.0313143452761 0
-0.000362207064307 -0.0310924005949 0
0.00035710624672 -0.0310960162233 0
5.58218839391e-05 -0.0284311328223 0
-0.000230682690764 -0.0308196932753 0
0.000133650822371 -0.0289613419147 0
0.000221398717341 -0.0308224439786 0
0.000306282803409 -0.0306643140381 0
0.00033929801191 -0.0311566652673 0
-0.000344834273302 -0.0311530913568 0
-0.000312438151466 -0.0306624173738 0
-0.000240310514684 -0.0309306380895 0
6.51711104586e-05 -0.02908933714 0
-0.000357391581861 -0.030949479556 0
-0.000295889452869 -0.0304282832776 0
-0.000201384679878 -0.0301799358284 0
0.000131206893726 -0.0305332183393 0
0.000374260702749 -0.0311795675187 0
-0.000378242705455 -0.0311766768135 0
2.10706002645e-07 -0.0301977841012 0
-0.0001120605666 -0.0313305658445 0
0.000352712525614 -0.0309575840207 0
2.75686951259e-05 -0.0289000511343 0
0.000289842565821 -0.0304356642501 0
0.000235331336285 -0.0301232263105 0
6.18918858159e-05 -0.0307056469465 0
0.000367823781087 -0.0310885382368 0
-0.000372139041802 -0.0310861800567 0
0.000231358247535 -0.030722339811 0
0.000300759434992 -0.030993137919 0
-0.000230158279616 -0.0300190756599 0
-0.000266566084547 -0.0309068992129 0
0.00024967347135 -0.0309109968282 0
-0.000183494919817 -0.0310009732469 0
0.00017626056566 -0.0310040415952 0
-5.66597050378e-05 -0.0292955172129 0
6.67335526846e-05 -0.0313081015216 0
-0.000137873043001 -0.0313887340952 0
-8.14465919509e-05 -0.0298333853637 0
-0.000132208413046 -0.0284758357608 0
0.00013386214529 -0.0313933940112 0
8.69749184038e-05 -0.0298267664962 0
-9.06617636019e-05 -0.0296337422098 0
-7.9037802419e-05 -0.0312997501133 0
-0.000136722853465 -0.0301595532999 0
-0.00014737067459 -0.0306300863107 0
-9.75975438911e-05 -0.0309599565728 0
0.000140243931589 -0.0306292397546 0
0.000105347302827 -0.0303419627778 0
-0.000115186013665 -0.0303433559765 0
-0.000251246934854 -0.0310859334782 0
0.00024460190954 -0.0310892712113 0
7.09813407036e-05 -0.029613209373 0
-0.000106474227111 -0.0292564745778 0
0.000201299454883 -0.0299685221686 0
-0.000209459844655 -0.0299555236582 0
-0.000334702032035 -0.0309780602405 0
-0.000194433846316 -0.0306319421708 0
0.000224957674669 -0.0304051609359 0
-0.000199030842701 -0.0311944853739 0
0.000325585326407 -0.0309822778489 0
0.000341363603652 -0.0309410715454 0
8.73110498479e-05 -0.0303206235852 0
-0.000232298842727 -0.0304297100801 0
-0.000383338908548 -0.0311632496585 0
0.000378948046616 -0.0311663696341 0
-4.69300194645e-05 -0.0300373151881 0
0.000124424755101 -0.0301648780084 0
-9.33948574944e-05 -0.0303603148462 0
0.000142893152929 -0.0313905445455 0
-3.73907001677e-05 -0.0290406787496 0
-0.000312687651905 -0.0312492885767 0
0.000312605940655 -0.0312485846743 0
-7.6929860851e-05 -0.0304331210669 0
6.33346860331e-05 -0.0304427864107 0
-0.000152247433218 -0.0313832517011 0
-0.000311121557488 -0.0309694993126 0
-0.000318443209648 -0.0307901139565 0
-0.00031514180417 -0.0311121362557 0
-0.000238634129541 -0.0312807169614 0
-0.000309775020024 -0.0306896557172 0
0.000314245834023 -0.0308010805284 0
0.000251747166066 -0.0312005950932 0
0.000234932564508 -0.0312848977982 0
0.000318856444535 -0.0310914221892 0
2.6016410834e-05 -0.0300001162447 0
-0.000253666546177 -0.0311941212677 0
-0.000168749347554 -0.0296313708582 0
-1.76749852972e-05 -0.0313295718483 0
-2.34116115718e-05 -0.0306646029163 0
0.000206468755612 -0.0302071823583 0
-6.78803071397e-05 -0.0308394653674 0
0.000158089223242 -0.0296089582308 0
5.97734437878e-05 -0.030842097651 0
0.000366469708465 -0.0311573687508 0
0.000146551969531 -0.0285982723748 0
-0.000279204193084 -0.0310450821685 0
0.000272789383428 -0.0310481861012 0
-0.00014004436908 -0.0309554563612 0
0.00013244723151 -0.0309583722412 0
-0.000245203500112 -0.0307575466593 0
-0.000349802918304 -0.030940373728 0
3.36931127091e-06 -0.02866746487 0
-0.000107802765974 -0.0308099990768 0
-0.000240545075185 -0.0309768892074 0
0.00023374559805 -0.0309796765547 0
-0.000370233462492 -0.0311517865009 0
0.00035991416559 -0.0310471895889 0
0.000231315901466 -0.0300085458369 0
-0.000277874005861 -0.0311212112854 0
0.000271484849086 -0.0311246996551 0
0.000179776106107 -0.0312354558138 0
-0.000362583422271 -0.0310432944193 0
-0.00032458790149 -0.031157117814 0
0.000318740837295 -0.0311608005376 0
0.000180313232682 -0.0298337134984 0
7.10134275302e-05 -0.029371678884 0
-0.00030304847187 -0.0312401184242 0
0.000299762828439 -0.031241894545 0
-0.000274868424864 -0.0306410415954 0
-3.0110594451e-05 -0.0290381275434 0
2.43333933208e-06 -0.0296974292289 0
-6.35944742133e-06 -0.0286720622254 0
0.000327413794839 -0.0307387759417 0
0.000269242001859 -0.0306471749758 0
-0.000261331472539 -0.0302296793565 0
-0.000219409020056 -0.0290676762021 0
-0.000180582099342 -0.0298360521583 0
0.000326214936875 -0.0309223181722 0
-0.000327823849777 -0.0310877141834 0
0.000322121031874 -0.0310907727401 0
0.000156008755841 -0.0309492394224 0
-0.000333002724391 -0.0307400547537 0
-0.000268972351762 -0.0303309029876 0
0.000137827157646 -0.03031981709 0
-0.000173052818065 -0.0309487409743 0
-1.71038110032e-05 -0.0310963876099 0
1.64368789629e-05 -0.0306574560756 0
-2.51445827001e-05 -0.0306597093022 0
-0.00022369442478 -0.0307334561787 0
0.000209202716095 -0.0307370185155 0
-0.000363554457608 -0.0311997522218 0
0.000360398036579 -0.0312023288348 0
-0.000247432405314 -0.0300871263326 0
0.000262513976451 -0.0303547689285 0
-0.000160083984712 -0.0303381449709 0
0.000198739980286 -0.0310787506098 0
-0.000182540728443 -0.0286407352588 0
0.000199855696446 -0.0305660486169 0
0.000356414501334 -0.0311647655849 0
-0.000361632828392 -0.0311611810279 0
-0.000166972920836 -0.0308335687255 0
-5.14043752249e-07 -0.0289654008644 0
0.000159475809028 -0.0308361091081 0
-0.000200014246026 -0.0298271718698 0
8.37317452367e-05 -0.0311506998535 0
9.24483741327e-05 -0.031398408243 0
0.000309340804714 -0.0306952949921 0
-0.000299476010638 -0.0305427116966 0
0.000357431734715 -0.0311243529352 0
-0.000362506839669 -0.0311212898285 0
0.000335451877209 -0.0311784203806 0
-0.00033984220219 -0.0311738654797 0
0.000101149512407 -0.0293338622805 0
0.00028185407964 -0.0308476406181 0
0.00024707350873 -0.0291595873553 0
1.3959359004e-05 -0.0282977073304 0
6.3034708113e-05 -0.0291352693634 0
-0.000347739425469 -0.030928906531 0
-0.000285395737004 -0.030858837307 0
-0.000195930033873 -0.0310422968779 0
0.000188822705164 -0.031045513926 0
5.90656633915e-05 -0.0301226539314 0
0.000189850606467 -0.0297924844413 0
-8.51934624607e-05 -0.0283625661188 0
0.000239253166789 -0.0313111609382 0
-0.000313872517448 -0.0310257181856 0
0.000306647279281 -0.0310288773479 0
0.000284785409735 -0.030487399905 0
-0.00026077857355 -0.0312941673763 0
-8.74885616759e-05 -0.0314044073852 0
0.000343987386787 -0.0308791724893 0
-0.000217955007403 -0.0310967691959 0
-0.000179144860522 -0.0297909546947 0
0.000255214354301 -0.0304507316336 0
0.000295885061376 -0.0305479693242 0
0.000228204442866 -0.0301165492929 0
0.000270149895816 -0.0302841788732 0
-0.000242633338784 -0.0304402660347 0
-0.000342485759382 -0.0310949390472 0
-5.00440375911e-07 -0.0295638305121 0
-6.78305491475e-05 -0.029877078323 0
-0.000346377866697 -0.0310841628955 0
0.000340871739063 -0.031088240461 0
-0.000219483927794 -0.0310725712055 0
0.000212565839751 -0.0310758916673 0
0.000151736133371 -0.0295039657035 0
0.000290314652313 -0.0309429256467 0
0.000275598132782 -0.0309296952019 0
0.000170774104251 -0.0297918415691 0
-0.000304268211093 -0.0305500564139 0
-0.000129234298703 -0.0299556913106 0
-0.000314344086431 -0.0309527497732 0
-0.000328737985542 -0.0311374444079 0
0.000322958476789 -0.031140927961 0
2.87440306972e-05 -0.0313488096383 0
-0.000103680273481 -0.0305310761526 0
-9.37532203025e-05 -0.0306831613689 0
-0.000347989581502 -0.0308759214411 0
0.000138334095218 -0.0299586964062 0
-1.72560254754e-05 -0.0295734180128 0
-0.000324838936602 -0.030882041084 0
0.000206481258787 -0.0305217192011 0
9.27443447422e-05 -0.0314184351409 0
0.000180746264276 -0.0302618046516 0
8.65131513656e-05 -0.0306857567661 0
-9.98284681166e-05 -0.0311340248349 0
-7.5571547143e-05 -0.0291360832637 0
0.000103053721505 -0.0305404179497 0
-5.87466057289e-05 -0.029667533022 0
0.000127304127119 -0.0304503446112 0
-0.000196016718009 -0.0302675692528 0
-0.000208800802961 -0.0305234659133 0
-0.000136744697983 -0.0304521668935 0
2.26774954856e-08 -0.028946050291 0
5.87608709486e-05 -0.0296605767436 0
6.21197438035e-06 -0.0285270610646 0
0.000374132981525 -0.0311664780824 0
-0.000378855039282 -0.0311630890002 0
0.000241412569027 -0.0300105742718 0
0.000265405183037 -0.0296668876626 0
-3.2912096186e-05 -0.0313849970452 0
-0.000271561741718 -0.0296652782261 0
-0.000248402875156 -0.0300186588803 0
7.70187252927e-05 -0.0306117067769 0
2.23990638614e-05 -0.030729248505 0
-0.00016375997782 -0.029528571514 0
-8.61097347966e-05 -0.0306138356049 0
-3.10804671754e-05 -0.0307316707518 0
0.000347873271695 -0.031069905046 0
0.000164290000241 -0.0311868580737 0
-4.04775356353e-05 -0.0300816360321 0
0.000163852637977 -0.0284036749912 0
-7.05458772009e-05 -0.0291532976836 0
0.00025886916329 -0.0286956233502 0
-0.000114419902044 -0.0294383974548 0
0.000338442584337 -0.031018718642 0
0.000356106159379 -0.0311457010467 0
-0.000361296629062 -0.0311423712634 0
-0.000281040183577 -0.0309226682559 0
-0.000373351510592 -0.0311185061246 0
0.0003686579682 -0.0311213459576 0
4.35823587648e-05 -0.0308632400847 0
-0.000249724293095 -0.0302087799521 0
5.91309986003e-05 -0.0313851109164 0
-4.33698410266e-05 -0.0285655863879 0
0.000140225881745 -0.0302993467754 0
-8.68150672815e-05 -0.0309168942178 0
7.88660792647e-05 -0.0309197165385 0
-0.000353804353318 -0.0310546104109 0
0.000198589742278 -0.030060370829 0
-1.17726261104e-05 -0.0301663347683 0
-0.000183391115116 -0.0300436477428 0
0.000280515865807 -0.0311193108062 0
-0.000107071369092 -0.0294278383785 0
-0.00021060381521 -0.0300558620375 0
6.09212983777e-05 -0.0292139216921 0
7.52201254775e-06 -0.0293156429909 0
-0.000364602213997 -0.0310177044244 0
-0.000146702444377 -0.0304603567671 0
3.43209951644e-05 -0.0289251163401 0
-5.03182662764e-05 -0.0304938462759 0
-0.000166183143538 -0.0302473274428 0
2.53452031178e-05 -0.0303916764225 0
-0.000115726494123 -0.0308220834773 0
0.000107907525408 -0.0308246524763 0
-3.4692965853e-05 -0.0303934129963 0
6.85180079828e-05 -0.0299752914503 0
-2.1496413377e-05 -0.0288327098933 0
4.57224221123e-05 -0.0302295438562 0
0.000370342150892 -0.0311241593623 0
-0.000374343630609 -0.0311198761965 0
-8.4791866127e-05 -0.0314246761224 0
0.000168534626436 -0.0300598020452 0
0.000359752700675 -0.0310180661394 0
-2.56397830672e-05 -0.0288180191195 0
-0.000272776222794 -0.0288248479924 0
-0.000321787625553 -0.0311138511629 0
0.000315896323008 -0.0311171744179 0
-0.000293491016163 -0.0311492726932 0
0.000287264748476 -0.0311529368228 0
-5.48347440149e-05 -0.0287780748681 0
-0.000337714793007 -0.0308903446202 0
2.30423022384e-05 -0.0299775281003 0
0.0003321775608 -0.0311469469662 0
0.000238673360322 -0.0302871673092 0
4.03032982866e-05 -0.0297946340001 0
0.000348568286088 -0.031057628643 0
-0.000334875012558 -0.0311672230041 0
0.000329175571091 -0.0311709994002 0
9.54336518144e-05 -0.0308253193879 0
0.000269808283462 -0.0307173279005 0
-3.62734903621e-05 -0.0305251112979 0
-0.000305820214301 -0.0310611556935 0
0.000299742655322 -0.0310642003442 0
-0.000232822242509 -0.0308842635465 0
-5.58710571372e-05 -0.0294622619436 0
0.000222016780657 -0.0308895263281 0
0.000216162192229 -0.0299778748319 0
7.49185578817e-05 -0.0285582729387 0
-0.000329474836298 -0.0307273662126 0
2.84169049204e-05 -0.0305294728979 0
-0.000170813977043 -0.0308846999942 0
0.000163321082469 -0.0308872852974 0
0.00020418385947 -0.0308425109843 0
-0.000253040850235 -0.0306967825667 0
-8.79231091377e-05 -0.0314343815651 0