# vtk DataFile Version 2.0
Generated with Solid Solver
ASCII
DATASET UNSTRUCTURED_GRID
POINTS 999 float 
0.2 4.3001 0.0
1.4 4.3001 0.0
1.4 4.8001 0.0
0.2 4.8001 0.0
1.4 4.32033264049 0.0
1.4 4.34261203886 0.0
1.4 4.36714525371 0.0
1.4 4.3941602782 0.0
1.4 4.42390817466 0.0
1.4 4.45666541084 0.0
1.4 4.49273640748 0.0
1.4 4.5324564007 0.0
1.4 4.57619451608 0.0
1.4 4.62435723872 0.0
1.4 4.67739217343 0.0
1.4 4.73579218095 0.0
1.33333333333 4.8001 0.0
1.26666666667 4.8001 0.0
1.2 4.8001 0.0
1.13333333333 4.8001 0.0
1.06666666667 4.8001 0.0
1.0 4.8001 0.0
0.933333333334 4.8001 0.0
0.866666666668 4.8001 0.0
0.800000000001 4.8001 0.0
0.733333333334 4.8001 0.0
0.666666666668 4.8001 0.0
0.600000000001 4.8001 0.0
0.533333333334 4.8001 0.0
0.466666666667 4.8001 0.0
0.4 4.8001 0.0
0.333333333334 4.8001 0.0
0.266666666667 4.8001 0.0
0.2 4.73579218095 0.0
0.2 4.67739217343 0.0
0.2 4.62435723872 0.0
0.2 4.57619451608 0.0
0.2 4.5324564007 0.0
0.2 4.49273640748 0.0
0.2 4.45666541084 0.0
0.2 4.42390817466 0.0
0.2 4.3941602782 0.0
0.2 4.36714525371 0.0
0.2 4.34261203886 0.0
0.2 4.32033264049 0.0
0.212131543907 4.28436329506 0.0
0.224675715302 4.26895348652 0.0
0.23762369102 4.25388141198 0.0
0.250966423879 4.23915760374 0.0
0.264694484585 4.22479246611 0.0
0.278798324214 4.21079599189 0.0
0.293267939266 4.19717810803 0.0
0.308093289028 4.18394826442 0.0
0.323263842145 4.17111585877 0.0
0.338769084145 4.15868978512 0.0
0.354597997314 4.14667887342 0.0
0.37073960121 4.13509145532 0.0
0.387182441982 4.12393575334 0.0
0.403915091795 4.11321952025 0.0
0.420925712897 4.10295033813 0.0
0.438202430937 4.09313537461 0.0
0.455733079095 4.08378154223 0.0
0.473505374364 4.07489539439 0.0
0.491506842655 4.06648316882 0.0
0.509724826085 4.0585507802 0.0
0.528146580414 4.05110377808 0.0
0.546759103951 4.04414741762 0.0
0.56554943677 4.03768654322 0.0
0.584504260001 4.03172573401 0.0
0.60361041518 4.0262691282 0.0
0.622854334779 4.02132060039 0.0
0.642222678753 4.01688358113 0.0
0.661701681839 4.01296122392 0.0
0.681277836375 4.00955624851 0.0
0.700937245817 4.00667107217 0.0
0.720666255912 4.00430769845 0.0
0.740450894784 4.00246780161 0.0
0.76027736978 4.00115266363 0.0
0.780131702711 4.00036321235 0.0
0.799999999998 4.0001 0.0
0.819868297285 4.00036321235 0.0
0.839722630216 4.00115266363 0.0
0.859549105212 4.00246780161 0.0
0.879333744085 4.00430769845 0.0
0.89906275418 4.00667107217 0.0
0.918722163621 4.00955624851 0.0
0.938298318157 4.01296122392 0.0
0.957777321244 4.01688358113 0.0
0.977145665218 4.02132060039 0.0
0.996389584817 4.0262691282 0.0
1.01549574 4.03172573401 0.0
1.03445056323 4.03768654322 0.0
1.05324089605 4.04414741762 0.0
1.07185341958 4.05110377808 0.0
1.09027517391 4.0585507802 0.0
1.10849315734 4.06648316882 0.0
1.12649462563 4.07489539439 0.0
1.1442669209 4.08378154222 0.0
1.16179756906 4.0931353746 0.0
1.1790742871 4.10295033813 0.0
1.1960849082 4.11321952024 0.0
1.21281755802 4.12393575334 0.0
1.22926039879 4.13509145532 0.0
1.24540200269 4.14667887342 0.0
1.26123091585 4.15868978512 0.0
1.27673615785 4.17111585877 0.0
1.29190671097 4.18394826442 0.0
1.30673206073 4.19717810803 0.0
1.32120167579 4.21079599189 0.0
1.33530551541 4.22479246611 0.0
1.34903357612 4.23915760374 0.0
1.36237630898 4.25388141198 0.0
1.3753242847 4.26895348652 0.0
1.38786845609 4.28436329506 0.0
1.05632730172 4.43535283906 0.0
0.549964048968 4.4381053958 0.0
0.806135520676 4.28696690218 0.0
0.60389578305 4.23589310371 0.0
1.22984770884 4.35828704125 0.0
0.3703382852 4.35933552752 0.0
0.995322815839 4.23075031136 0.0
0.728315816804 4.1516935937 0.0
0.872128173905 4.14798724072 0.0
1.14059401893 4.24808468684 0.0
0.461553191009 4.24691671009 0.0
0.784706775856 4.54331390922 0.0
0.398287125272 4.55455970538 0.0
1.20625306554 4.55844743514 0.0
0.624100842742 4.1340824436 0.0
0.5257453845 4.16321776279 0.0
0.978502430793 4.12998737058 0.0
1.07419209812 4.16335154482 0.0
0.364313698077 4.26187035763 0.0
1.23509538257 4.26191716733 0.0
0.68124123937 4.36794548972 0.0
1.31679378691 4.32522066749 0.0
0.283206213094 4.32522066749 0.0
0.791498533126 4.08977141721 0.0
0.931481076052 4.3552344917 0.0
0.96671906557 4.60288042839 0.0
0.684451667517 4.08578036752 0.0
0.618335406951 4.60196910993 0.0
0.450982331762 4.17196171732 0.0
0.915674266355 4.08505633851 0.0
1.14900051594 4.17199012964 0.0
1.30193709687 4.4232448133 0.0
0.29857466761 4.42326296922 0.0
1.05734787542 4.32500107617 0.0
0.539273225177 4.32762599628 0.0
0.709896798149 4.25231026287 0.0
0.895708916005 4.24434194389 0.0
0.813273511364 4.41345766235 0.0
0.559289631452 4.10740879113 0.0
1.04001407307 4.10791539633 0.0
0.801161810585 4.20656244955 0.0
0.665113819616 4.49566650186 0.0
0.852577362173 4.06621846388 0.0
0.39025672787 4.1993806298 0.0
1.20974450479 4.19938104599 0.0
0.921542541183 4.50288058719 0.0
1.14030889032 4.33947344809 0.0
1.15600477272 4.44318538305 0.0
0.435243219029 4.4501581257 0.0
0.462045157798 4.34164654286 0.0
0.735806812738 4.05982269746 0.0
1.30082934537 4.27303772796 0.0
0.299170654625 4.27303772796 0.0
0.533651712118 4.23775983853 0.0
0.666130919144 4.19162131559 0.0
1.0676097303 4.23689469382 0.0
1.08054433577 4.56040946155 0.0
0.506773767255 4.54078295079 0.0
0.626745312844 4.07634420826 0.0
0.933845304214 4.1857954732 0.0
0.293717639664 4.52685000185 0.0
0.31250502208 4.63936411351 0.0
1.3058164124 4.52664930624 0.0
1.29054387065 4.63812765963 0.0
0.973467966326 4.07451619478 0.0
0.487935413164 4.12597084015 0.0
0.461549079751 4.66346834982 0.0
1.11203248746 4.12603503889 0.0
1.14453515393 4.68127370303 0.0
0.840217564202 4.66401146633 0.0
0.585347033288 4.18049048534 0.0
0.619177396637 4.31737576306 0.0
0.331644410315 4.22472190462 0.0
1.26835558968 4.22472190462 0.0
1.01536156978 4.17497473052 0.0
0.809331033562 4.04575709122 0.0
0.982321540791 4.30947358971 0.0
0.725600576914 4.64509651799 0.0
0.812291456186 4.14152942492 0.0
0.335887692543 4.31428235669 0.0
1.26344844681 4.31527131907 0.0
1.23449730504 4.46967441524 0.0
1.34334172096 4.38049551957 0.0
0.256658279045 4.38049551957 0.0
0.741646926828 4.31797908527 0.0
0.674799084703 4.14183768522 0.0
1.18647435526 4.28465189749 0.0
0.360563250284 4.47106479569 0.0
0.873716483853 4.31355499203 0.0
0.418704489949 4.28656264283 0.0
0.492670911224 4.20441614809 0.0
0.403480880356 4.16556776931 0.0
1.19651541215 4.1655686246 0.0
0.728649253738 4.43724546491 0.0
1.00883674467 4.37684664879 0.0
1.11035034557 4.20671841276 0.0
0.261968539765 4.2881079512 0.0
1.33803146023 4.2881079512 0.0
0.74649980488 4.1069354354 0.0
0.927597725248 4.1328597079 0.0
0.892956618256 4.05129338913 0.0
0.659794281787 4.05461387326 0.0
0.587663534405 4.06996537006 0.0
0.942353209926 4.05445300973 0.0
1.01493747319 4.06986013719 0.0
0.613130017774 4.38879803882 0.0
0.449373501074 4.12887191978 0.0
0.514840228377 4.09735850006 0.0
0.497057592 4.38843092106 0.0
1.15061382426 4.12889293084 0.0
1.08514419473 4.09738328152 0.0
0.745617635771 4.20608957592 0.0
0.875234522129 4.57363036549 0.0
0.855262884783 4.2009970831 0.0
1.01126200032 4.50790064162 0.0
1.09391916408 4.38142408872 0.0
1.04436265455 4.68992000827 0.0
0.314320181089 4.36283968607 0.0
1.28649331902 4.36253720145 0.0
0.771211579291 4.03826862024 0.0
0.432259099658 4.21516002157 0.0
0.698583889427 4.04654353526 0.0
1.16802128371 4.213962881 0.0
1.09587629216 4.2837676659 0.0
1.35920470355 4.33176960471 0.0
0.240795296449 4.33176960471 0.0
0.504003580654 4.28325758118 0.0
0.579942709371 4.5093075073 0.0
0.875915224914 4.10325792528 0.0
0.426503136644 4.38227733008 0.0
0.57541416445 4.27875301522 0.0
0.683877978289 4.30671848113 0.0
0.888061695889 4.42143509246 0.0
1.33987712478 4.47369249103 0.0
0.26012287522 4.47369249103 0.0
0.801393572636 4.34570096582 0.0
0.558460082533 4.70006728209 0.0
1.1741923373 4.38642830101 0.0
0.83220012886 4.10289415912 0.0
1.02815069622 4.27563276509 0.0
0.948308583502 4.2631204454 0.0
0.846588933095 4.48344596945 0.0
1.25632767671 4.40990360053 0.0
0.343666800815 4.40995820652 0.0
0.97849585731 4.44541535602 0.0
1.10170977548 4.49017265998 0.0
0.662193131828 4.24319398492 0.0
0.400503668388 4.24391657105 0.0
1.20117145985 4.23640427377 0.0
0.350957892513 4.19306558019 0.0
1.24904210749 4.19306558019 0.0
0.771964652188 4.16415379403 0.0
0.932165148285 4.70246281402 0.0
0.373672364094 4.70831357765 0.0
0.760245937722 4.25919350779 0.0
0.848718469252 4.03277763075 0.0
1.23385612561 4.7109294747 0.0
0.846421485813 4.25575918421 0.0
0.651597058631 4.10553284014 0.0
0.650489852551 4.69648045504 0.0
0.58457834847 4.13885088261 0.0
0.48701309933 4.16369927013 0.0
0.708495738406 4.56366947756 0.0
1.11203398596 4.16388062515 0.0
0.54865558244 4.07760047869 0.0
1.05126102377 4.07744629471 0.0
0.300013757486 4.23769646442 0.0
1.29998624251 4.23769646442 0.0
0.9465032388 4.10228070354 0.0
0.708587583337 4.11656095907 0.0
0.973348904468 4.17047871864 0.0
0.628721855632 4.17048356945 0.0
0.380175010019 4.31531880077 0.0
0.662092932411 4.43409041267 0.0
1.05133526787 4.19731992007 0.0
0.528087045766 4.61837882187 0.0
1.22233124543 4.31031693908 0.0
1.19001193434 4.33783586668 0.0
0.853024099244 4.37054003492 0.0
0.542800296246 4.19834366905 0.0
0.247706318737 4.42749119247 0.0
1.35229368126 4.42749119247 0.0
0.599153768578 4.10463797005 0.0
1.01616570494 4.13737683178 0.0
0.744705786938 4.38079544575 0.0
1.31929001115 4.71212550052 0.0
0.777615355331 4.12623602511 0.0
0.265621610877 4.58485488866 0.0
1.33132411895 4.58141378639 0.0
0.532023338888 4.12884454388 0.0
1.0697792195 4.12751429251 0.0
0.286371037106 4.70520312914 0.0
0.497725885905 4.47663668256 0.0
0.46053455822 4.29097947599 0.0
0.433799237968 4.52139400991 0.0
0.388624781906 4.62604200004 0.0
0.554823673752 4.37961940232 0.0
1.1421595646 4.29328301431 0.0
1.14760043966 4.59165103139 0.0
1.21258698805 4.62830200685 0.0
1.16279096046 4.50802621409 0.0
0.995762647814 4.10018772517 0.0
0.456229040627 4.58966685246 0.0
0.707289391156 4.19030271873 0.0
0.763036833302 4.71795445535 0.0
[...]
POINT_DATA 999
VECTORS Displacement float
-8.70233933448e-16 -0.009 0
2.79630192732e-16 -0.009 0
0.0 -0.009 0
0.0 -0.009 0
2.4930707194e-16 -0.009 0
2.21136413319e-16 -0.009 0
1.94811994244e-16 -0.009 0
1.71552683106e-16 -0.009 0
1.47697397643e-16 -0.009 0
1.32032831624e-16 -0.009 0
1.26423442527e-16 -0.009 0
1.37627535681e-16 -0.009 0
1.662101269e-16 -0.009 0
1.79983985215e-16 -0.009 0
9.62570352315e-17 -0.009 0
-3.35821167571e-16 -0.009 0
0.0 -0.009 0
0.0 -0.009 0
0.0 -0.009 0
0.0 -0.009 0
0.0 -0.009 0
0.0 -0.009 0
0.0 -0.009 0
0.0 -0.009 0
0.0 -0.009 0
0.0 -0.009 0
0.0 -0.009 0
0.0 -0.009 0
0.0 -0.009 0
0.0 -0.009 0
0.0 -0.009 0
0.0 -0.009 0
0.0 -0.009 0
3.32063491603e-16 -0.009 0
-7.42101593846e-17 -0.009 0
-3.16630987797e-16 -0.009 0
-4.38224349587e-16 -0.009 0
-5.18088155586e-16 -0.009 0
-5.75178695908e-16 -0.009 0
-6.27234291548e-16 -0.009 0
-6.72704528003e-16 -0.009 0
-7.13830095795e-16 -0.009 0
-7.51763361328e-16 -0.009 0
-7.88613667528e-16 -0.009 0
-8.26259519851e-16 -0.009 0
-9.05993885836e-16 -0.009 0
-9.43114268987e-16 -0.009 0
-9.78120304873e-16 -0.009 0
-1.00981031554e-15 -0.009 0
-1.03790112265e-15 -0.009 0
-1.06341040628e-15 -0.009 0
-1.08664030326e-15 -0.009 0
-1.10379548499e-15 -0.009 0
-1.11700394606e-15 -0.009 0
-1.12534730362e-15 -0.009 0
-1.12813509326e-15 -0.009 0
-1.12712520416e-15 -0.009 0
-1.12135924389e-15 -0.009 0
-1.1105342353e-15 -0.009 0
-1.09605424688e-15 -0.009 0
-1.07609677545e-15 -0.009 0
-1.0526948949e-15 -0.009 0
-1.02501107255e-15 -0.009 0
-9.92330048325e-16 -0.009 0
-9.55767063829e-16 -0.009 0
-9.17733248702e-16 -0.009 0
-8.75812945113e-16 -0.00900000000001 0
-8.29963476849e-16 -0.00900000000001 0
-7.80071635455e-16 -0.00900000000001 0
-7.269973459e-16 -0.00900000000001 0
-6.73184545462e-16 -0.00900000000001 0
-6.14880779544e-16 -0.00900000000001 0
-5.56899454418e-16 -0.00900000000001 0
-4.97821104062e-16 -0.00900000000001 0
-4.349722583e-16 -0.00900000000001 0
-3.74085004566e-16 -0.00900000000001 0
-3.11270579701e-16 -0.00900000000001 0
-2.49466008465e-16 -0.00900000000001 0
-1.87248101126e-16 -0.00900000000001 0
-1.26439265303e-16 -0.00900000000001 0
-6.57480131e-17 -0.00900000000001 0
-4.65879577441e-18 -0.00900000000001 0
5.32893041945e-17 -0.00900000000001 0
1.06880048566e-16 -0.00900000000001 0
1.5953569131e-16 -0.00900000000001 0
2.11220885657e-16 -0.00900000000001 0
2.58581047703e-16 -0.00900000000001 0
3.04313568603e-16 -0.00900000000001 0
3.46724739159e-16 -0.00900000000001 0
3.86555262502e-16 -0.00900000000001 0
4.20329469098e-16 -0.009 0
4.5097370848e-16 -0.009 0
4.79696656978e-16 -0.009 0
5.00870871962e-16 -0.009 0
5.23609435835e-16 -0.009 0
5.38574334783e-16 -0.009 0
5.52212975369e-16 -0.009 0
5.59007945848e-16 -0.009 0
5.64387388794e-16 -0.009 0
5.65153071661e-16 -0.009 0
5.63907289952e-16 -0.009 0
5.58628879818e-16 -0.009 0
5.48589962247e-16 -0.009 0
5.36178359061e-16 -0.009 0
5.21081856149e-16 -0.009 0
5.0401541727e-16 -0.009 0
4.83586588011e-16 -0.009 0
4.61226200204e-16 -0.009 0
4.3698918093e-16 -0.009 0
4.1301536338e-16 -0.009 0
3.86469075646e-16 -0.009 0
3.59675510902e-16 -0.009 0
3.33072818782e-16 -0.009 0
3.05820447015e-16 -0.009 0
4.28934637318e-16 -0.009 0
-9.76408879869e-16 -0.00900000000001 0
-9.3103941159e-17 -0.00900000000001 0
-7.26714899703e-16 -0.00900000000001 0
2.55031897996e-16 -0.009 0
-8.59841919793e-16 -0.009 0
3.01396850574e-16 -0.00900000000001 0
-3.72281972204e-16 -0.00900000000001 0
3.64755484814e-17 -0.00900000000001 0
3.72886683393e-16 -0.009 0
-9.26615122036e-16 -0.009 0
1.03103634206e-16 -0.00900000000001 0
-5.65742636689e-16 -0.009 0
2.141455421e-18 -0.009 0
-6.57912783994e-16 -0.00900000000001 0
-8.70158837442e-16 -0.00900000000001 0
2.71677281095e-16 -0.00900000000001 0
3.90536042692e-16 -0.009 0
-9.51056510226e-16 -0.009 0
3.5360873854e-16 -0.009 0
-6.21831926577e-16 -0.00900000000001 0
2.57722941186e-16 -0.009 0
-8.50657636155e-16 -0.009 0
-1.82191738723e-16 -0.00900000000001 0
3.68474211639e-16 -0.00900000000001 0
8.81362469134e-16 -0.009 0
-4.91399063624e-16 -0.00900000000001 0
-1.51056803848e-15 -0.00900000000001 0
-9.81013876437e-16 -0.009 0
1.53528657105e-16 -0.00900000000001 0
4.4092414219e-16 -0.009 0
1.73157702723e-16 -0.009 0
-7.44315628408e-16 -0.009 0
3.76910049464e-16 -0.009 0
-8.82643681947e-16 -0.00900000000001 0
-4.45224389923e-16 -0.00900000000001 0
1.38889083593e-16 -0.00900000000001 0
9.11932013647e-17 -0.00900000000001 0
-8.18164741647e-16 -0.00900000000001 0
3.8619679727e-16 -0.009 0
-1.49638906656e-16 -0.00900000000001 0
-1.01619363245e-15 -0.00900000000001 0
-3.00337306979e-18 -0.00900000000001 0
-1.01440170458e-15 -0.009 0
4.32265927132e-16 -0.009 0
8.23337294853e-16 -0.00900000000001 0
3.27047389993e-16 -0.009 0
2.34610253446e-16 -0.009 0
-8.36154389169e-16 -0.009 0
-9.05453314413e-16 -0.009 0
-3.39817447303e-16 -0.00900000000001 0
3.29174340078e-16 -0.009 0
-9.34183835601e-16 -0.009 0
-8.52344116079e-16 -0.00900000000001 0
-5.55211009629e-16 -0.00900000000001 0
3.60264391081e-16 -0.009 0
2.51474388931e-16 -0.009 0
-8.82037117124e-16 -0.009 0
-6.54249445079e-16 -0.00900000000001 0
1.86218158486e-16 -0.00900000000001 0
-6.13183315695e-16 -0.009 0
-4.12868253806e-16 -0.009 0
1.51116821984e-16 -0.009 0
2.26674268187e-16 -0.009 0
2.89600904392e-16 -0.00900000000001 0
-9.55136690577e-16 -0.009 0
-1.72040392104e-16 -0.009 0
4.63096923721e-16 -0.009 0
-3.94424668072e-16 -0.009 0
1.84072583995e-15 -0.00900000000001 0
-7.52417030985e-16 -0.00900000000001 0
-7.51327421532e-16 -0.00900000000001 0
-1.01152920368e-15 -0.009 0
4.04466056253e-16 -0.009 0
3.20130725444e-16 -0.00900000000001 0
-1.17584598766e-16 -0.00900000000001 0
3.51026907877e-16 -0.00900000000001 0
-1.5339359127e-15 -0.00900000000001 0
-1.26403215479e-16 -0.00900000000001 0
-8.86302821989e-16 -0.009 0
2.83070475053e-16 -0.009 0
1.50939529675e-16 -0.009 0
1.94245647279e-16 -0.009 0
-7.65916342717e-16 -0.009 0
-3.38662638699e-16 -0.00900000000001 0
-5.23467996532e-16 -0.00900000000001 0
3.40133396124e-16 -0.009 0
-7.29584937255e-16 -0.009 0
1.6217946706e-16 -0.00900000000001 0
-9.24981491818e-16 -0.009 0
-9.10516119054e-16 -0.009 0
-1.04274630806e-15 -0.009 0
4.75608974835e-16 -0.009 0
-4.80932128913e-16 -0.00900000000001 0
4.40255380765e-16 -0.009 0
3.90744253629e-16 -0.009 0
-9.02560939056e-16 -0.009 0
3.02936057388e-16 -0.009 0
-3.1644284143e-16 -0.00900000000001 0
1.68214225348e-16 -0.00900000000001 0
1.14198363134e-16 -0.00900000000001 0
-5.6232463851e-16 -0.00900000000001 0
-7.59825612206e-16 -0.00900000000001 0
2.34755242026e-16 -0.00900000000001 0
3.76623507844e-16 -0.009 0
-8.62546747146e-16 -0.00900000000001 0
-1.01978221668e-15 -0.009 0
-9.20521960958e-16 -0.009 0
-9.19638865211e-16 -0.009 0
4.95897045374e-16 -0.009 0
4.63445520805e-16 -0.009 0
-3.23377465118e-16 -0.00900000000001 0
1.15189905402e-15 -0.00900000000001 0
6.4096061814e-18 -0.00900000000001 0
5.795056399e-16 -0.009 0
3.60641859664e-16 -0.009 0
3.66538100134e-17 -0.009 0
-8.22624103762e-16 -0.009 0
2.25772667181e-16 -0.009 0
-2.28288393266e-16 -0.00900000000001 0
-9.65679975507e-16 -0.009 0
-4.4713882273e-16 -0.00900000000001 0
4.04628024266e-16 -0.009 0
3.62071829058e-16 -0.009 0
2.38738128411e-16 -0.009 0
-8.21099210468e-16 -0.009 0
-8.91804549653e-16 -0.009 0
-1.08769012605e-15 -0.00900000000001 0
5.0506539005e-17 -0.00900000000001 0
-8.77968955604e-16 -0.009 0
-8.05606388497e-16 -0.00900000000001 0
-5.54564999252e-16 -0.00900000000001 0
4.55965424682e-16 -0.00900000000001 0
1.46840258177e-16 -0.009 0
-6.58379949858e-16 -0.009 0
-6.5793977071e-17 -0.00900000000001 0
-6.18317464456e-16 -0.009 0
2.69841990655e-16 -0.009 0
-6.82694050875e-17 -0.00900000000001 0
3.50500723342e-16 -0.009 0
2.60276516367e-16 -0.00900000000001 0
5.20303883555e-16 -0.00900000000001 0
1.96636827933e-16 -0.009 0
-7.91703224545e-16 -0.009 0
5.77770240204e-16 -0.00900000000001 0
2.8385420361e-16 -0.009 0
-5.83765850373e-16 -0.00900000000001 0
-9.61865451034e-16 -0.009 0
3.84401439813e-16 -0.009 0
-1.05252202718e-15 -0.009 0
4.52825015263e-16 -0.009 0
-2.44483193637e-16 -0.00900000000001 0
7.19430396298e-16 -0.009 0
-2.88528386081e-18 -0.009 0
-2.71604654767e-16 -0.00900000000001 0
1.88819474112e-18 -0.00900000000001 0
7.24819099605e-17 -0.00900000000001 0
1.50281137128e-17 -0.00900000000001 0
-5.8511419489e-16 -0.00900000000001 0
-1.71801768938e-15 -0.00900000000001 0
-7.53590502385e-16 -0.00900000000001 0
-9.34173744928e-16 -0.009 0
-1.02372779468e-15 -0.00900000000001 0
4.2382732699e-16 -0.009 0
-8.54362049033e-16 -0.00900000000001 0
4.33278915529e-16 -0.009 0
-9.98030961184e-16 -0.009 0
3.85070494124e-16 -0.009 0
2.1613518209e-16 -0.00900000000001 0
-4.2580856267e-16 -0.00900000000001 0
2.58112932908e-16 -0.00900000000001 0
-6.50771044724e-16 -0.00900000000001 0
-8.99213176886e-16 -0.009 0
-8.19561011871e-16 -0.00900000000001 0
3.54683757883e-16 -0.009 0
-8.37675235688e-16 -0.009 0
3.03341104754e-16 -0.009 0
2.95529240388e-16 -0.009 0
1.93802298884e-16 -0.00900000000001 0
-8.3508249958e-16 -0.00900000000001 0
-7.04776359973e-16 -0.009 0
1.60933125713e-16 -0.009 0
-7.22942081987e-16 -0.00900000000001 0
3.32258991682e-16 -0.00900000000001 0
-3.34436338754e-16 -0.00900000000001 0
1.14483509558e-16 -0.009 0
-2.27218629841e-16 -0.00900000000001 0
-5.0859220177e-16 -0.009 0
2.04810257474e-16 -0.009 0
-8.69568872584e-16 -0.00900000000001 0
4.12153809044e-16 -0.009 0
-1.41098385893e-16 -0.009 0
-9.13810829478e-16 -0.009 0
-9.13483950861e-16 -0.009 0
-7.10116866723e-16 -0.009 0
-2.80413792746e-16 -0.009 0
-9.14945468472e-16 -0.00900000000001 0
3.47006330542e-16 -0.009 0
-1.0582701947e-16 -0.009 0
-1.81837510568e-16 -0.009 0
1.25430675451e-16 -0.009 0
3.17271962958e-16 -0.00900000000001 0
-5.32919967087e-16 -0.009 0
-4.38806978284e-16 -0.00900000000001 0
-4.35812245736e-16 -0.00900000000002 0
-1.36351056435e-17 -0.00900000000001 0
2.73130294811e-16 -0.00900000000001 0
-1.05457090021e-15 -0.009 0
9.88343941106e-17 -0.00900000000001 0
5.08516562191e-16 -0.009 0
1.48555888179e-16 -0.009 0
-3.40494486362e-16 -0.00900000000001 0
-9.57518356456e-16 -0.009 0
3.53377710226e-16 -0.009 0
-1.06917522773e-15 -0.009 0
4.83640466691e-16 -0.009 0
-9.89101263369e-16 -0.00900000000001 0
-8.90512426121e-16 -0.009 0
-2.50952238665e-16 -0.00900000000001 0
-7.65047051994e-16 -0.00900000000001 0
-9.93921849054e-16 -0.009 0
3.97457331685e-16 -0.009 0
-7.02036598094e-16 -0.009 0
2.05427178669e-16 -0.009 0
2.39180777831e-16 -0.00900000000001 0
-9.60198261685e-16 -0.009 0
3.49001186889e-16 -0.009 0
5.3209525261e-17 -0.009 0
-8.14784723155e-16 -0.009 0
-8.61050336783e-16 -0.009 0
2.72069924836e-16 -0.009 0
-6.72449387762e-16 -0.00900000000001 0
-4.60149096081e-17 -0.00900000000001 0
-5.33874494637e-16 -0.009 0
1.15212214319e-16 -0.009 0
-8.98170701426e-16 -0.009 0
-4.07874453709e-16 -0.00900000000001 0
-1.33063393512e-16 -0.00900000000001 0
-9.18889921823e-17 -0.00900000000001 0
3.55579004927e-16 -0.009 0
3.72382611328e-16 -0.009 0
-6.83096121657e-16 -0.00900000000001 0
1.78384309443e-16 -0.00900000000001 0
3.17206705658e-16 -0.00900000000001 0
3.14057941172e-16 -0.009 0
-8.82069125705e-16 -0.009 0
2.82319941823e-16 -0.009 0
9.16989049815e-16 -0.00900000000001 0
-9.03864695435e-16 -0.009 0
-7.81302472658e-16 -0.00900000000001 0
3.63009134474e-16 -0.009 0
-1.2793648561e-15 -0.00900000000001 0
4.83646009861e-16 -0.00900000000001 0
-9.88775984002e-16 -0.009 0
4.9877305983e-16 -0.009 0
-9.45273135836e-16 -0.009 0
4.06260742879e-16 -0.009 0
-6.01283635713e-16 -0.009 0
1.54807948881e-16 -0.009 0
-6.7123460996e-16 -0.00900000000001 0
3.3495231462e-16 -0.009 0
-8.1779472494e-16 -0.00900000000001 0
5.52158814757e-16 -0.009 0
7.0511826872e-17 -0.00900000000001 0
5.00245991498e-16 -0.00900000000001 0
2.08033108619e-16 -0.009 0
-7.78753568954e-16 -0.009 0
-1.00454508554e-15 -0.009 0
7.37865522249e-17 -0.00900000000001 0
4.44939620706e-16 -0.009 0
-5.04342194622e-16 -0.00900000000001 0
1.35028695083e-15 -0.00900000000001 0
-2.26588061427e-16 -0.009 0
4.05648937445e-16 -0.009 0
-8.46497380998e-16 -0.00900000000001 0
2.18393245783e-16 -0.009 0
-8.05667434529e-16 -0.009 0
1.0815537878e-16 -0.009 0
-6.41619188324e-16 -0.009 0
1.20990253058e-16 -0.00900000000001 0
3.63970901211e-16 -0.009 0
-5.15103627139e-16 -0.00900000000001 0
-1.55212029932e-16 -0.00900000000001 0
-3.59407489443e-17 -0.00900000000001 0
-8.93214255254e-16 -0.009 0
-9.42625688657e-16 -0.009 0
-1.05597568812e-15 -0.009 0
4.45959407623e-16 -0.009 0
4.18384503194e-17 -0.00900000000001 0
1.52630045388e-16 -0.00900000000001 0
-6.04611848399e-17 -0.00900000000001 0
2.47603046119e-16 -0.009 0
-9.15888596542e-16 -0.009 0
3.16201283573e-16 -0.009 0
3.84146084891e-16 -0.00900000000001 0
-3.89706728987e-16 -0.009 0
-1.49573797667e-16 -0.009 0
3.14143779281e-16 -0.009 0
-1.07624945138e-15 -0.009 0
-6.0222597062e-16 -0.00900000000001 0
3.9687018282e-16 -0.00900000000001 0
3.60584222326e-16 -0.009 0
2.87431812647e-16 -0.00900000000001 0
3.19294784174e-16 -0.00900000000001 0
-7.42867149749e-16 -0.00900000000001 0
-7.44288192481e-16 -0.009 0
-5.83100267351e-16 -0.00900000000001 0
-6.66589210686e-16 -0.00900000000001 0
-8.53900840731e-16 -0.009 0
2.55750339642e-16 -0.009 0
-1.03731152743e-15 -0.009 0
4.22637783444e-16 -0.009 0
1.12321957629e-16 -0.00900000000001 0
3.47360376743e-16 -0.009 0
4.29641708982e-16 -0.009 0
2.21125038035e-16 -0.00900000000001 0
-8.58220855276e-16 -0.00900000000001 0
-3.68660853932e-16 -0.00900000000001 0
-9.22924005673e-16 -0.009 0
-8.62165590385e-16 -0.009 0
2.6928657028e-16 -0.009 0
1.40735302708e-15 -0.00900000000001 0
-9.05245213142e-16 -0.009 0
-9.71537177421e-16 -0.009 0
-9.01834889545e-16 -0.009 0
1.15027864841e-16 -0.00900000000001 0
2.33804619648e-16 -0.00900000000001 0
-9.34449491169e-16 -0.009 0
3.80182585114e-16 -0.009 0
-5.6893148185e-16 -0.009 0
-8.27001484006e-16 -0.00900000000001 0
4.57889812181e-16 -0.009 0
-1.76152017018e-15 -0.00900000000001 0
-2.99734591441e-16 -0.00900000000001 0
4.20982473908e-16 -0.009 0
-2.36729327583e-16 -0.00900000000001 0
-9.06710123227e-16 -0.009 0
4.30471544263e-16 -0.009 0
-8.77130970979e-16 -0.009 0
4.73781360463e-16 -0.009 0
-1.51937157626e-16 -0.00900000000001 0
-4.87634715514e-17 -0.00900000000001 0
-1.88443211106e-16 -0.00900000000001 0
1.73540087925e-16 -0.009 0
-7.29398562296e-16 -0.009 0
-7.31676879403e-16 -0.00900000000001 0
-6.29899458072e-16 -0.00900000000001 0
-2.19693945373e-15 -0.00900000000001 0
2.9294524206e-16 -0.00900000000001 0
3.69626109497e-16 -0.00900000000001 0
-9.78929650024e-16 -0.009 0
-1.02909443104e-15 -0.009 0
-4.58374476961e-16 -0.00900000000001 0
5.09833550507e-16 -0.009 0
5.23760626021e-16 -0.009 0
1.67508214236e-16 -0.009 0
4.1491302329e-16 -0.009 0
-1.81689784124e-16 -0.00900000000001 0
-2.83705101151e-16 -0.00900000000001 0
1.57849828488e-16 -0.00900000000001 0
-3.98818271189e-16 -0.00900000000001 0
-5.07520335963e-16 -0.00900000000001 0
2.78244851658e-16 -0.009 0
2.1461323524e-16 -0.009 0
-7.94469587415e-16 -0.009 0
-1.0063004601e-15 -0.009 0
-7.81779712651e-16 -0.009 0
1.95782742702e-16 -0.009 0
7.64447461855e-16 -0.00900000000001 0
-7.35389058266e-16 -0.00900000000001 0
5.5688370645e-17 -0.009 0
-4.465668597e-17 -0.00900000000001 0
2.6357276523e-16 -0.00900000000001 0
-1.0858961325e-15 -0.009 0
5.15309228767e-16 -0.009 0
-8.53630710426e-16 -0.009 0
2.11585360085e-16 -0.00900000000001 0
3.6352427136e-16 -0.009 0
-6.98969453121e-16 -0.00900000000001 0
8.30377013182e-17 -0.009 0
-3.21449188927e-16 -0.00900000000001 0
-5.46222155682e-16 -0.00900000000001 0
-4.99208868595e-16 -0.00900000000001 0
-1.44009223354e-16 -0.00900000000001 0
-8.42170625138e-16 -0.009 0
-5.410068513e-16 -0.00900000000001 0
-6.81917326212e-18 -0.00900000000001 0
-1.80646774408e-16 -0.00900000000001 0
-5.04647424889e-16 -0.00900000000001 0
-8.68137180625e-16 -0.00900000000001 0
-1.02436583993e-15 -0.009 0
4.74855284826e-16 -0.009 0
4.26898545058e-16 -0.009 0
1.98590276006e-17 -0.00900000000001 0
-3.12675999474e-16 -0.00900000000001 0
-8.03246859108e-16 -0.00900000000001 0
1.67733880093e-16 -0.009 0
-7.48485796083e-16 -0.009 0
2.41776962455e-16 -0.009 0
2.94130586036e-16 -0.00900000000001 0
2.3746643836e-16 -0.009 0
-2.49377169009e-16 -0.00900000000001 0
1.39603571782e-16 -0.00900000000001 0
-8.83576344424e-16 -0.009 0
2.85437860848e-16 -0.009 0
-9.30329007787e-16 -0.009 0
3.24170613375e-16 -0.009 0
4.74107173865e-17 -0.00900000000001 0
-9.06219200943e-16 -0.009 0
-7.10671787661e-16 -0.00900000000001 0
8.68175261849e-17 -0.009 0
3.27585547172e-16 -0.009 0
2.67474614269e-16 -0.00900000000001 0
2.52882569677e-16 -0.009 0
-8.34522970005e-16 -0.009 0
2.52529851049e-16 -0.009 0
8.48304521655e-16 -0.00900000000001 0
4.93412853928e-16 -0.009 0
-9.15342245919e-16 -0.009 0
-9.20583425855e-16 -0.009 0
3.17907004778e-16 -0.009 0
-9.81025391308e-16 -0.009 0
-2.36045975895e-16 -0.00900000000001 0
4.05989806138e-16 -0.009 0
2.11695012052e-16 -0.00900000000001 0
-2.89656502238e-16 -0.00900000000001 0
-9.10804859579e-16 -0.00900000000001 0
4.43635200339e-16 -0.009 0
-1.02084180847e-15 -0.009 0
4.48954840043e-16 -0.009 0
7.11594206334e-16 -0.00900000000001 0
-9.23208814504e-16 -0.009 0
-1.16823116088e-16 -0.009 0
-1.00582102539e-15 -0.009 0
3.88753942524e-16 -0.009 0
-3.99680763419e-16 -0.00900000000001 0
-1.05631131376e-15 -0.009 0
5.24668180594e-16 -0.009 0
-3.50644408757e-16 -0.00900000000001 0
-5.3835494293e-16 -0.00900000000001 0
-6.73890917949e-16 -0.009 0
-9.45941104653e-16 -0.009 0
-7.60936955622e-16 -0.00900000000001 0
3.24662405388e-16 -0.009 0
3.71902471795e-16 -0.00900000000001 0
4.18302456066e-16 -0.009 0
5.5355415068e-17 -0.00900000000001 0
1.7737487442e-16 -0.009 0
-7.42809121581e-16 -0.009 0
-8.74276902459e-16 -0.00900000000001 0
-9.78318426417e-16 -0.009 0
3.76400563669e-16 -0.009 0
3.63556048201e-16 -0.009 0
-1.02116455211e-15 -0.009 0
4.21346075854e-16 -0.009 0
-6.6666677779e-16 -0.009 0
1.46539874904e-16 -0.009 0
-7.34762223279e-16 -0.00900000000001 0
6.58332346648e-16 -0.009 0
2.78553905954e-16 -0.009 0
6.29981808762e-16 -0.00900000000001 0
3.85692460714e-16 -0.009 0
3.0840013316e-17 -0.00900000000001 0
-8.01500830244e-16 -0.00900000000001 0
2.36410906138e-16 -0.00900000000001 0
5.41169629562e-16 -0.009 0
2.25151585236e-16 -0.009 0
-8.25907271501e-16 -0.009 0
-9.40087660103e-16 -0.009 0
-9.07899715034e-16 -0.009 0
2.3722087519e-16 -0.00900000000001 0
-7.53109579887e-16 -0.00900000000001 0
7.61111193515e-17 -0.00900000000001 0
4.51917231509e-16 -0.00900000000001 0
3.90106072322e-16 -0.00900000000001 0
-4.61734265458e-16 -0.00900000000001 0
3.73319554878e-16 -0.009 0
-6.21563828345e-16 -0.00900000000001 0
3.71961857169e-16 -0.009 0
2.99977958472e-16 -0.009 0
1.2299072229e-15 -0.00900000000001 0
-8.04283190581e-16 -0.00900000000001 0
-2.38717235483e-16 -0.00900000000001 0
-1.31680045638e-15 -0.009 0
-1.1007522261e-15 -0.00900000000001 0
-8.19901877078e-16 -0.00900000000001 0
-4.075873692e-16 -0.00900000000001 0
-6.71101555167e-16 -0.00900000000001 0
-9.47546822902e-16 -0.00900000000001 0
2.73348813168e-16 -0.00900000000001 0
3.33605052263e-16 -0.00900000000001 0
-8.00958430546e-16 -0.009 0
2.28084545797e-16 -0.009 0
1.56138103709e-16 -0.009 0
-6.99924660199e-16 -0.009 0
-2.07557538781e-16 -0.00900000000001 0
-3.67868434861e-16 -0.00900000000001 0
-9.92695200072e-16 -0.009 0
1.77318814219e-16 -0.00900000000001 0
4.50222739875e-16 -0.009 0
-4.49474782847e-16 -0.009 0
2.68149246931e-16 -0.009 0
7.96562046034e-17 -0.00900000000001 0
3.66446654206e-16 -0.009 0
3.03329151135e-16 -0.00900000000001 0
-9.44729049826e-16 -0.009 0
1.71317059882e-16 -0.00900000000001 0
4.8764945319e-16 -0.009 0
-1.08520097715e-15 -0.009 0
4.89751392688e-16 -0.009 0
-2.85266806412e-16 -0.009 0
3.74738702372e-16 -0.009 0
1.04857450137e-15 -0.00900000000001 0
1.01628751099e-16 -0.00900000000001 0
6.47028484396e-16 -0.00900000000001 0
-9.40893826606e-16 -0.00900000000001 0
4.01666163755e-16 -0.009 0
-8.15469541849e-16 -0.00900000000001 0
6.02035794766e-16 -0.00900000000001 0
-9.24595949242e-16 -0.009 0
3.2099563251e-16 -0.009 0