# vtk DataFile Version 2.0
Generated with Solid Solver
ASCII
DATASET UNSTRUCTURED_GRID
POINTS 999 float 
0.2 4.3001 0.0
1.4 4.3001 0.0
1.4 4.8001 0.0
0.2 4.8001 0.0
1.4 4.32033264049 0.0
1.4 4.34261203886 0.0
1.4 4.36714525371 0.0
1.4 4.3941602782 0.0
1.4 4.42390817466 0.0
1.4 4.45666541084 0.0
1.4 4.49273640748 0.0
1.4 4.5324564007 0.0
1.4 4.57619451608 0.0
1.4 4.62435723872 0.0
1.4 4.67739217343 0.0
1.4 4.73579218095 0.0
1.33333333333 4.8001 0.0
1.26666666667 4.8001 0.0
1.2 4.8001 0.0
1.13333333333 4.8001 0.0
1.06666666667 4.8001 0.0
1.0 4.8001 0.0
0.933333333334 4.8001 0.0
0.866666666668 4.8001 0.0
0.800000000001 4.8001 0.0
0.733333333334 4.8001 0.0
0.666666666668 4.8001 0.0
0.600000000001 4.8001 0.0
0.533333333334 4.8001 0.0
0.466666666667 4.8001 0.0
0.4 4.8001 0.0
0.333333333334 4.8001 0.0
0.266666666667 4.8001 0.0
0.2 4.73579218095 0.0
0.2 4.67739217343 0.0
0.2 4.62435723872 0.0
0.2 4.57619451608 0.0
0.2 4.5324564007 0.0
0.2 4.49273640748 0.0
0.2 4.45666541084 0.0
0.2 4.42390817466 0.0
0.2 4.3941602782 0.0
0.2 4.36714525371 0.0
0.2 4.34261203886 0.0
0.2 4.32033264049 0.0
0.212131543907 4.28436329506 0.0
0.224675715302 4.26895348652 0.0
0.23762369102 4.25388141198 0.0
0.250966423879 4.23915760374 0.0
0.264694484585 4.22479246611 0.0
0.278798324214 4.21079599189 0.0
0.293267939266 4.19717810803 0.0
0.308093289028 4.18394826442 0.0
0.323263842145 4.17111585877 0.0
0.338769084145 4.15868978512 0.0
0.354597997314 4.14667887342 0.0
0.37073960121 4.13509145532 0.0
0.387182441982 4.12393575334 0.0
0.403915091795 4.11321952025 0.0
0.420925712897 4.10295033813 0.0
0.438202430937 4.09313537461 0.0
0.455733079095 4.08378154223 0.0
0.473505374364 4.07489539439 0.0
0.491506842655 4.06648316882 0.0
0.509724826085 4.0585507802 0.0
0.528146580414 4.05110377808 0.0
0.546759103951 4.04414741762 0.0
0.56554943677 4.03768654322 0.0
0.584504260001 4.03172573401 0.0
0.60361041518 4.0262691282 0.0
0.622854334779 4.02132060039 0.0
0.642222678753 4.01688358113 0.0
0.661701681839 4.01296122392 0.0
0.681277836375 4.00955624851 0.0
0.700937245817 4.00667107217 0.0
0.720666255912 4.00430769845 0.0
0.740450894784 4.00246780161 0.0
0.76027736978 4.00115266363 0.0
0.780131702711 4.00036321235 0.0
0.799999999998 4.0001 0.0
0.819868297285 4.00036321235 0.0
0.839722630216 4.00115266363 0.0
0.859549105212 4.00246780161 0.0
0.879333744085 4.00430769845 0.0
0.89906275418 4.00667107217 0.0
0.918722163621 4.00955624851 0.0
0.938298318157 4.01296122392 0.0
0.957777321244 4.01688358113 0.0
0.977145665218 4.02132060039 0.0
0.996389584817 4.0262691282 0.0
1.01549574 4.03172573401 0.0
1.03445056323 4.03768654322 0.0
1.05324089605 4.04414741762 0.0
1.07185341958 4.05110377808 0.0
1.09027517391 4.0585507802 0.0
1.10849315734 4.06648316882 0.0
1.12649462563 4.07489539439 0.0
1.1442669209 4.08378154222 0.0
1.16179756906 4.0931353746 0.0
1.1790742871 4.10295033813 0.0
1.1960849082 4.11321952024 0.0
1.21281755802 4.12393575334 0.0
1.22926039879 4.13509145532 0.0
1.24540200269 4.14667887342 0.0
1.26123091585 4.15868978512 0.0
1.27673615785 4.17111585877 0.0
1.29190671097 4.18394826442 0.0
1.30673206073 4.19717810803 0.0
1.32120167579 4.21079599189 0.0
1.33530551541 4.22479246611 0.0
1.34903357612 4.23915760374 0.0
1.36237630898 4.25388141198 0.0
1.3753242847 4.26895348652 0.0
1.38786845609 4.28436329506 0.0
1.05632730172 4.43535283906 0.0
0.549964048968 4.4381053958 0.0
0.806135520676 4.28696690218 0.0
0.60389578305 4.23589310371 0.0
1.22984770884 4.35828704125 0.0
0.3703382852 4.35933552752 0.0
0.995322815839 4.23075031136 0.0
0.728315816804 4.1516935937 0.0
0.872128173905 4.14798724072 0.0
1.14059401893 4.24808468684 0.0
0.461553191009 4.24691671009 0.0
0.784706775856 4.54331390922 0.0
0.398287125272 4.55455970538 0.0
1.20625306554 4.55844743514 0.0
0.624100842742 4.1340824436 0.0
0.5257453845 4.16321776279 0.0
0.978502430793 4.12998737058 0.0
1.07419209812 4.16335154482 0.0
0.364313698077 4.26187035763 0.0
1.23509538257 4.26191716733 0.0
0.68124123937 4.36794548972 0.0
1.31679378691 4.32522066749 0.0
0.283206213094 4.32522066749 0.0
0.791498533126 4.08977141721 0.0
0.931481076052 4.3552344917 0.0
0.96671906557 4.60288042839 0.0
0.684451667517 4.08578036752 0.0
0.618335406951 4.60196910993 0.0
0.450982331762 4.17196171732 0.0
0.915674266355 4.08505633851 0.0
1.14900051594 4.17199012964 0.0
1.30193709687 4.4232448133 0.0
0.29857466761 4.42326296922 0.0
1.05734787542 4.32500107617 0.0
0.539273225177 4.32762599628 0.0
0.709896798149 4.25231026287 0.0
0.895708916005 4.24434194389 0.0
0.813273511364 4.41345766235 0.0
0.559289631452 4.10740879113 0.0
1.04001407307 4.10791539633 0.0
0.801161810585 4.20656244955 0.0
0.665113819616 4.49566650186 0.0
0.852577362173 4.06621846388 0.0
0.39025672787 4.1993806298 0.0
1.20974450479 4.19938104599 0.0
0.921542541183 4.50288058719 0.0
1.14030889032 4.33947344809 0.0
1.15600477272 4.44318538305 0.0
0.435243219029 4.4501581257 0.0
0.462045157798 4.34164654286 0.0
0.735806812738 4.05982269746 0.0
1.30082934537 4.27303772796 0.0
0.299170654625 4.27303772796 0.0
0.533651712118 4.23775983853 0.0
0.666130919144 4.19162131559 0.0
1.0676097303 4.23689469382 0.0
1.08054433577 4.56040946155 0.0
0.506773767255 4.54078295079 0.0
0.626745312844 4.07634420826 0.0
0.933845304214 4.1857954732 0.0
0.293717639664 4.52685000185 0.0
0.31250502208 4.63936411351 0.0
1.3058164124 4.52664930624 0.0
1.29054387065 4.63812765963 0.0
0.973467966326 4.07451619478 0.0
0.487935413164 4.12597084015 0.0
0.461549079751 4.66346834982 0.0
1.11203248746 4.12603503889 0.0
1.14453515393 4.68127370303 0.0
0.840217564202 4.66401146633 0.0
0.585347033288 4.18049048534 0.0
0.619177396637 4.31737576306 0.0
0.331644410315 4.22472190462 0.0
1.26835558968 4.22472190462 0.0
1.01536156978 4.17497473052 0.0
0.809331033562 4.04575709122 0.0
0.982321540791 4.30947358971 0.0
0.725600576914 4.64509651799 0.0
0.812291456186 4.14152942492 0.0
0.335887692543 4.31428235669 0.0
1.26344844681 4.31527131907 0.0
1.23449730504 4.46967441524 0.0
1.34334172096 4.38049551957 0.0
0.256658279045 4.38049551957 0.0
0.741646926828 4.31797908527 0.0
0.674799084703 4.14183768522 0.0
1.18647435526 4.28465189749 0.0
0.360563250284 4.47106479569 0.0
0.873716483853 4.31355499203 0.0
0.418704489949 4.28656264283 0.0
0.492670911224 4.20441614809 0.0
0.403480880356 4.16556776931 0.0
1.19651541215 4.1655686246 0.0
0.728649253738 4.43724546491 0.0
1.00883674467 4.37684664879 0.0
1.11035034557 4.20671841276 0.0
0.261968539765 4.2881079512 0.0
1.33803146023 4.2881079512 0.0
0.74649980488 4.1069354354 0.0
0.927597725248 4.1328597079 0.0
0.892956618256 4.05129338913 0.0
0.659794281787 4.05461387326 0.0
0.587663534405 4.06996537006 0.0
0.942353209926 4.05445300973 0.0
1.01493747319 4.06986013719 0.0
0.613130017774 4.38879803882 0.0
0.449373501074 4.12887191978 0.0
0.514840228377 4.09735850006 0.0
0.497057592 4.38843092106 0.0
1.15061382426 4.12889293084 0.0
1.08514419473 4.09738328152 0.0
0.745617635771 4.20608957592 0.0
0.875234522129 4.57363036549 0.0
0.855262884783 4.2009970831 0.0
1.01126200032 4.50790064162 0.0
1.09391916408 4.38142408872 0.0
1.04436265455 4.68992000827 0.0
0.314320181089 4.36283968607 0.0
1.28649331902 4.36253720145 0.0
0.771211579291 4.03826862024 0.0
0.432259099658 4.21516002157 0.0
0.698583889427 4.04654353526 0.0
1.16802128371 4.213962881 0.0
1.09587629216 4.2837676659 0.0
1.35920470355 4.33176960471 0.0
0.240795296449 4.33176960471 0.0
0.504003580654 4.28325758118 0.0
0.579942709371 4.5093075073 0.0
0.875915224914 4.10325792528 0.0
0.426503136644 4.38227733008 0.0
0.57541416445 4.27875301522 0.0
0.683877978289 4.30671848113 0.0
0.888061695889 4.42143509246 0.0
1.33987712478 4.47369249103 0.0
0.26012287522 4.47369249103 0.0
0.801393572636 4.34570096582 0.0
0.558460082533 4.70006728209 0.0
1.1741923373 4.38642830101 0.0
0.83220012886 4.10289415912 0.0
1.02815069622 4.27563276509 0.0
0.948308583502 4.2631204454 0.0
0.846588933095 4.48344596945 0.0
1.25632767671 4.40990360053 0.0
0.343666800815 4.40995820652 0.0
0.97849585731 4.44541535602 0.0
1.10170977548 4.49017265998 0.0
0.662193131828 4.24319398492 0.0
0.400503668388 4.24391657105 0.0
1.20117145985 4.23640427377 0.0
0.350957892513 4.19306558019 0.0
1.24904210749 4.19306558019 0.0
0.771964652188 4.16415379403 0.0
0.932165148285 4.70246281402 0.0
0.373672364094 4.70831357765 0.0
0.760245937722 4.25919350779 0.0
0.848718469252 4.03277763075 0.0
1.23385612561 4.7109294747 0.0
0.846421485813 4.25575918421 0.0
0.651597058631 4.10553284014 0.0
0.650489852551 4.69648045504 0.0
0.58457834847 4.13885088261 0.0
0.48701309933 4.16369927013 0.0
0.708495738406 4.56366947756 0.0
1.11203398596 4.16388062515 0.0
0.54865558244 4.07760047869 0.0
1.05126102377 4.07744629471 0.0
0.300013757486 4.23769646442 0.0
1.29998624251 4.23769646442 0.0
0.9465032388 4.10228070354 0.0
0.708587583337 4.11656095907 0.0
0.973348904468 4.17047871864 0.0
0.628721855632 4.17048356945 0.0
0.380175010019 4.31531880077 0.0
0.662092932411 4.43409041267 0.0
1.05133526787 4.19731992007 0.0
0.528087045766 4.61837882187 0.0
1.22233124543 4.31031693908 0.0
1.19001193434 4.33783586668 0.0
0.853024099244 4.37054003492 0.0
0.542800296246 4.19834366905 0.0
0.247706318737 4.42749119247 0.0
1.35229368126 4.42749119247 0.0
0.599153768578 4.10463797005 0.0
1.01616570494 4.13737683178 0.0
0.744705786938 4.38079544575 0.0
1.31929001115 4.71212550052 0.0
0.777615355331 4.12623602511 0.0
0.265621610877 4.58485488866 0.0
1.33132411895 4.58141378639 0.0
0.532023338888 4.12884454388 0.0
1.0697792195 4.12751429251 0.0
0.286371037106 4.70520312914 0.0
0.497725885905 4.47663668256 0.0
0.46053455822 4.29097947599 0.0
0.433799237968 4.52139400991 0.0
0.388624781906 4.62604200004 0.0
0.554823673752 4.37961940232 0.0
1.1421595646 4.29328301431 0.0
1.14760043966 4.59165103139 0.0
1.21258698805 4.62830200685 0.0
1.16279096046 4.50802621409 0.0
0.995762647814 4.10018772517 0.0
0.456229040627 4.58966685246 0.0
0.707289391156 4.19030271873 0.0
0.763036833302 4.71795445535 0.0
[...]
POINT_DATA 999
VECTORS Displacement float
-9.31544373611e-16 -0.018 0
3.27196980411e-16 -0.018 0
0.0 -0.018 0
0.0 -0.018 0
2.87984689958e-16 -0.018 0
2.58226675489e-16 -0.018 0
2.24405975592e-16 -0.018 0
1.91080441131e-16 -0.018 0
1.6223418047e-16 -0.018 0
1.40170609624e-16 -0.018 0
1.25752372377e-16 -0.018 0
1.26171528445e-16 -0.018 0
1.4357535265e-16 -0.018 0
1.41745414394e-16 -0.018 0
3.703825991e-17 -0.018 0
-4.42226865434e-16 -0.018 0
0.0 -0.018 0
0.0 -0.018 0
0.0 -0.018 0
0.0 -0.018 0
0.0 -0.018 0
0.0 -0.018 0
0.0 -0.018 0
0.0 -0.018 0
0.0 -0.018 0
0.0 -0.018 0
0.0 -0.018 0
0.0 -0.018 0
0.0 -0.018 0
0.0 -0.018 0
0.0 -0.018 0
0.0 -0.018 0
0.0 -0.018 0
4.29157303395e-16 -0.018 0
-1.24026130836e-17 -0.018 0
-2.82833329765e-16 -0.018 0
-4.22836307308e-16 -0.018 0
-5.20569450821e-16 -0.018 0
-5.88493454546e-16 -0.018 0
-6.50175684477e-16 -0.018 0
-7.03823337272e-16 -0.018 0
-7.52144269315e-16 -0.018 0
-7.97434544356e-16 -0.018 0
-8.39517106143e-16 -0.018 0
-8.82269185437e-16 -0.018 0
-9.72690825542e-16 -0.018 0
-1.0152231336e-15 -0.018 0
-1.05301696036e-15 -0.018 0
-1.08902783758e-15 -0.018 0
-1.12284572984e-15 -0.018 0
-1.14908068796e-15 -0.018 0
-1.17346799322e-15 -0.018 0
-1.19361194052e-15 -0.018 0
-1.20916443593e-15 -0.018 0
-1.22034272456e-15 -0.018 0
-1.22302841313e-15 -0.018 0
-1.22199030332e-15 -0.018 0
-1.21477936522e-15 -0.018 0
-1.20457058768e-15 -0.018 0
-1.1879504664e-15 -0.018 0
-1.16673511672e-15 -0.018 0
-1.13914962619e-15 -0.018 0
-1.10962532894e-15 -0.018 0
-1.07601422293e-15 -0.018 0
-1.03559748575e-15 -0.018 0
-9.92465661795e-16 -0.018 0
-9.44260676279e-16 -0.018 0
-8.93604993559e-16 -0.018 0
-8.39150100478e-16 -0.018 0
-7.7912846282e-16 -0.018 0
-7.18133205044e-16 -0.018 0
-6.55077113212e-16 -0.018 0
-5.91582823691e-16 -0.018 0
-5.27201541781e-16 -0.018 0
-4.58416249892e-16 -0.018 0
-3.88920817242e-16 -0.018 0
-3.20678922786e-16 -0.018 0
-2.51527468542e-16 -0.018 0
-1.83033237728e-16 -0.018 0
-1.14683368905e-16 -0.018 0
-4.75678456688e-17 -0.018 0
1.95256123697e-17 -0.018 0
8.55536304498e-17 -0.018 0
1.47537194782e-16 -0.018 0
2.05753689811e-16 -0.018 0
2.62742026229e-16 -0.018 0
3.16707415692e-16 -0.018 0
3.65837283536e-16 -0.018 0
4.11980190115e-16 -0.018 0
4.55848450371e-16 -0.018 0
4.95746413608e-16 -0.018 0
5.3163615335e-16 -0.018 0
5.64105782325e-16 -0.018 0
5.88555663562e-16 -0.018 0
6.11744601075e-16 -0.018 0
6.29529036086e-16 -0.018 0
6.4482195076e-16 -0.018 0
6.55034750132e-16 -0.018 0
6.58240936043e-16 -0.018 0
6.58339380649e-16 -0.018 0
6.55907437837e-16 -0.018 0
6.50869310311e-16 -0.018 0
6.39339874353e-16 -0.018 0
6.25359283848e-16 -0.018 0
6.07839890906e-16 -0.018 0
5.8657322836e-16 -0.018 0
5.64936827425e-16 -0.018 0
5.39317571408e-16 -0.018 0
5.11673024226e-16 -0.018 0
4.82768949392e-16 -0.018 0
4.51090020808e-16 -0.018 0
4.18957978465e-16 -0.018 0
3.88394774084e-16 -0.018 0
3.56676418259e-16 -0.018 0
4.7950947904e-16 -0.018 0
-1.04427071622e-15 -0.018 0
-8.44803855253e-17 -0.018 0
-7.76149192966e-16 -0.018 0
2.9306293682e-16 -0.018 0
-9.16631408247e-16 -0.018 0
3.55356914441e-16 -0.018 0
-3.88251865735e-16 -0.018 0
6.44843479157e-17 -0.018 0
4.34788926836e-16 -0.018 0
-9.96724367678e-16 -0.018 0
1.26147982174e-16 -0.018 0
-5.78699213508e-16 -0.018 0
-1.25608683996e-17 -0.018 0
-7.04409313465e-16 -0.018 0
-9.37350881451e-16 -0.018 0
3.25837110658e-16 -0.018 0
4.59414395308e-16 -0.018 0
-1.02327263752e-15 -0.018 0
4.11636486076e-16 -0.018 0
-6.60290772642e-16 -0.018 0
2.97824635284e-16 -0.018 0
-9.09770866959e-16 -0.018 0
-1.769497801e-16 -0.018 0
4.19468734421e-16 -0.018 0
9.62247980501e-16 -0.018 0
-5.19340589028e-16 -0.018 0
-1.62009982248e-15 -0.018 0
-1.0577888521e-15 -0.018 0
1.95125993685e-16 -0.018 0
5.16401092823e-16 -0.018 0
1.91511797907e-16 -0.018 0
-7.84604885168e-16 -0.018 0
4.33178246001e-16 -0.018 0
-9.43797034307e-16 -0.018 0
-4.65938076171e-16 -0.018 0
1.74136249246e-16 -0.018 0
1.16054918275e-16 -0.018 0
-8.7908891452e-16 -0.018 0
4.55839751991e-16 -0.018 0
-1.41729466126e-16 -0.018 0
-1.0855928366e-15 -0.018 0
2.20362628999e-17 -0.018 0
-1.09440572059e-15 -0.018 0
5.04259300966e-16 -0.018 0
9.08289918359e-16 -0.018 0
3.75722468016e-16 -0.018 0
2.63086295802e-16 -0.018 0
-8.85653950911e-16 -0.018 0
-9.69171474267e-16 -0.018 0
-3.50545299595e-16 -0.018 0
3.83898282804e-16 -0.018 0
-1.00554106859e-15 -0.018 0
-9.15124253635e-16 -0.018 0
-5.91743671959e-16 -0.018 0
4.20725786839e-16 -0.018 0
2.71211492668e-16 -0.018 0
-9.33624583442e-16 -0.018 0
-6.99451006758e-16 -0.018 0
2.29667029111e-16 -0.018 0
-6.27089506196e-16 -0.018 0
-3.85900574393e-16 -0.018 0
1.46703524136e-16 -0.018 0
1.89892649547e-16 -0.018 0
3.46827577161e-16 -0.018 0
-1.03032254133e-15 -0.018 0
-1.46218918745e-16 -0.018 0
5.4116354339e-16 -0.018 0
-4.59504875102e-16 -0.018 0
2.01353045014e-15 -0.018 0
-8.07610505466e-16 -0.018 0
-7.99571110933e-16 -0.018 0
-1.09219077327e-15 -0.018 0
4.7255194336e-16 -0.018 0
3.78983875399e-16 -0.018 0
-1.06648794044e-16 -0.018 0
4.03424306993e-16 -0.018 0
-1.64870056906e-15 -0.018 0
-1.1532862448e-16 -0.018 0
-9.48443014469e-16 -0.018 0
3.29703295041e-16 -0.018 0
1.61297683519e-16 -0.018 0
2.20930645344e-16 -0.018 0
-8.11349297935e-16 -0.018 0
-3.52367373447e-16 -0.018 0
-5.55293317099e-16 -0.018 0
3.93831122323e-16 -0.018 0
-7.64303221098e-16 -0.018 0
1.94623305752e-16 -0.018 0
-9.92378668244e-16 -0.018 0
-9.7894396335e-16 -0.018 0
-1.12747111331e-15 -0.018 0
5.55924161746e-16 -0.018 0
-5.07255163572e-16 -0.018 0
4.97404915905e-16 -0.018 0
4.57452529471e-16 -0.018 0
-9.69617676375e-16 -0.018 0
3.53041818468e-16 -0.018 0
-3.24285596055e-16 -0.018 0
2.11223387206e-16 -0.018 0
1.51229878652e-16 -0.018 0
-5.97638877136e-16 -0.018 0
-8.1609373513e-16 -0.018 0
2.8644906481e-16 -0.018 0
4.4606352716e-16 -0.018 0
-9.22572130588e-16 -0.018 0
-1.10220360743e-15 -0.018 0
-9.94785747593e-16 -0.018 0
-9.82401848282e-16 -0.018 0
5.81514153359e-16 -0.018 0
5.43549516206e-16 -0.018 0
-3.33285404044e-16 -0.018 0
1.26653982416e-15 -0.018 0
2.95874428467e-17 -0.018 0
6.38382466207e-16 -0.018 0
4.10721417562e-16 -0.018 0
2.09120459687e-17 -0.018 0
-8.75203298216e-16 -0.018 0
2.60659470591e-16 -0.018 0
-2.27358511304e-16 -0.018 0
-1.04164751391e-15 -0.018 0
-4.72522669077e-16 -0.018 0
4.72425915777e-16 -0.018 0
4.20155965703e-16 -0.018 0
2.78568392834e-16 -0.018 0
-8.75793201242e-16 -0.018 0
-9.57311034699e-16 -0.018 0
-1.16316722142e-15 -0.018 0
7.91664630418e-17 -0.018 0
-9.34695330178e-16 -0.018 0
-8.5967884341e-16 -0.018 0
-5.83878173125e-16 -0.018 0
5.11234994481e-16 -0.018 0
1.54199103897e-16 -0.018 0
-6.8266290039e-16 -0.018 0
-5.61370112822e-17 -0.018 0
-6.3175316176e-16 -0.018 0
3.08447134261e-16 -0.018 0
-5.26176336405e-17 -0.018 0
4.05964941819e-16 -0.018 0
3.06883252881e-16 -0.018 0
5.77501728847e-16 -0.018 0
2.19482370636e-16 -0.018 0
-8.38790495597e-16 -0.018 0
6.42885018059e-16 -0.018 0
3.14543164414e-16 -0.018 0
-6.20679097365e-16 -0.018 0
-1.03421528008e-15 -0.018 0
4.49170057032e-16 -0.018 0
-1.13763316993e-15 -0.018 0
5.28646196333e-16 -0.018 0
-2.46777694067e-16 -0.018 0
7.80154562999e-16 -0.018 0
6.55647199576e-17 -0.018 0
-2.78840050217e-16 -0.018 0
2.78329548981e-17 -0.018 0
8.29929674941e-18 -0.018 0
3.8019664005e-17 -0.018 0
-6.23669106919e-16 -0.018 0
-1.83886111388e-15 -0.018 0
-8.08626632432e-16 -0.018 0
-1.00814182339e-15 -0.018 0
-1.09574200812e-15 -0.018 0
4.95467681393e-16 -0.018 0
-9.2163075914e-16 -0.018 0
5.10810127454e-16 -0.018 0
-1.078071518e-15 -0.018 0
4.50601231512e-16 -0.018 0
2.65440805393e-16 -0.018 0
-4.47740152016e-16 -0.018 0
3.08566946293e-16 -0.018 0
-6.95960555726e-16 -0.018 0
-9.62914758696e-16 -0.018 0
-8.74305111489e-16 -0.018 0
4.15879514792e-16 -0.018 0
-8.79201656135e-16 -0.018 0
3.52151999371e-16 -0.018 0
3.41735802626e-16 -0.018 0
2.27087221759e-16 -0.018 0
-8.99853525832e-16 -0.018 0
-7.38236889431e-16 -0.018 0
1.74125881984e-16 -0.018 0
-7.74343141086e-16 -0.018 0
3.93966780538e-16 -0.018 0
-3.47700500616e-16 -0.018 0
4.17774990248e-17 -0.018 0
-2.27248701837e-16 -0.018 0
-5.00784220526e-16 -0.018 0
1.8490729172e-16 -0.018 0
-9.36942397745e-16 -0.018 0
4.85098995162e-16 -0.018 0
-7.90006039715e-17 -0.018 0
-9.71598734755e-16 -0.018 0
-9.80912229795e-16 -0.018 0
-7.42033199697e-16 -0.018 0
-2.58176403038e-16 -0.018 0
-9.78711029497e-16 -0.018 0
4.03008980887e-16 -0.018 0
-1.26926046876e-16 -0.018 0
-2.28794306493e-16 -0.018 0
1.35605209933e-16 -0.018 0
3.79057142082e-16 -0.018 0
-5.45209006618e-16 -0.018 0
-4.60139645026e-16 -0.018 0
-4.49859173058e-16 -0.018 0
-7.1506659443e-19 -0.018 0
3.19741657739e-16 -0.018 0
-1.14177364699e-15 -0.018 0
1.29492238604e-16 -0.018 0
5.9290117979e-16 -0.018 0
1.57174380175e-16 -0.018 0
-3.51656217116e-16 -0.018 0
-1.03259367386e-15 -0.018 0
4.118911754e-16 -0.018 0
-1.15735416768e-15 -0.018 0
5.65548530383e-16 -0.018 0
-1.06031158577e-15 -0.018 0
-9.52137956646e-16 -0.018 0
-2.54849429501e-16 -0.018 0
-8.17365401452e-16 -0.018 0
-1.07072181384e-15 -0.018 0
4.63582217668e-16 -0.018 0
-7.31957611578e-16 -0.018 0
2.3212537988e-16 -0.018 0
2.85371650507e-16 -0.018 0
-1.03379568682e-15 -0.018 0
4.0720743253e-16 -0.018 0
4.3360148292e-17 -0.018 0
-8.6181381022e-16 -0.018 0
-9.23235770149e-16 -0.018 0
3.17778837071e-16 -0.018 0
-7.18855505979e-16 -0.018 0
-2.7161969715e-17 -0.018 0
-5.33252300237e-16 -0.018 0
9.38019349782e-17 -0.018 0
-9.64547949267e-16 -0.018 0
-4.26071456282e-16 -0.018 0
-1.26936847166e-16 -0.018 0
-7.74321987803e-17 -0.018 0
4.08442620781e-16 -0.018 0
4.34489606697e-16 -0.018 0
-7.27249223431e-16 -0.018 0
2.25523742091e-16 -0.018 0
3.78615752148e-16 -0.018 0
3.52827824362e-16 -0.018 0
-9.44517610674e-16 -0.018 0
3.27939417507e-16 -0.018 0
1.00914487935e-15 -0.018 0
-9.67540509018e-16 -0.018 0
-8.37496049652e-16 -0.018 0
4.27665867256e-16 -0.018 0
-1.37100703522e-15 -0.018 0
5.43146256089e-16 -0.018 0
-1.06939382706e-15 -0.018 0
5.84038671947e-16 -0.018 0
-1.01837398573e-15 -0.018 0
4.75111561884e-16 -0.018 0
-6.13958455997e-16 -0.018 0
1.50113936603e-16 -0.018 0
-7.18028841424e-16 -0.018 0
3.91333505438e-16 -0.018 0
-8.78313540332e-16 -0.018 0
6.00475482891e-16 -0.018 0
1.05218342235e-16 -0.018 0
5.59304490217e-16 -0.018 0
2.40959491728e-16 -0.018 0
-8.28471641829e-16 -0.018 0
-1.08478592915e-15 -0.018 0
1.0602388127e-16 -0.018 0
5.19663483194e-16 -0.018 0
-5.32089733248e-16 -0.018 0
1.47722644539e-15 -0.018 0
-2.81010216353e-16 -0.018 0
4.61326292357e-16 -0.018 0
-9.05070152877e-16 -0.018 0
2.50809816724e-16 -0.018 0
-8.57229192901e-16 -0.018 0
1.03558189712e-16 -0.018 0
-6.61299260801e-16 -0.018 0
1.58741422973e-16 -0.018 0
4.23582656619e-16 -0.018 0
-5.44230746895e-16 -0.018 0
-1.46743935605e-16 -0.018 0
-1.75535078585e-17 -0.018 0
-9.50134142218e-16 -0.018 0
-1.01257361526e-15 -0.018 0
-1.13981152588e-15 -0.018 0
5.21181910882e-16 -0.018 0
6.32669035676e-17 -0.018 0
1.88172805738e-16 -0.018 0
-4.18979502739e-17 -0.018 0
2.05833218574e-16 -0.018 0
-9.84084731832e-16 -0.018 0
3.67430080163e-16 -0.018 0
4.38321960586e-16 -0.018 0
-3.60174637319e-16 -0.018 0
-1.12571153647e-16 -0.018 0
3.58317723783e-16 -0.018 0
-1.14579407429e-15 -0.018 0
-6.43242599863e-16 -0.018 0
4.53794658814e-16 -0.018 0
4.17500226233e-16 -0.018 0
3.40789405474e-16 -0.018 0
3.70062911797e-16 -0.018 0
-7.90411997987e-16 -0.018 0
-7.77982827701e-16 -0.018 0
-6.21337591139e-16 -0.018 0
-7.13417257189e-16 -0.018 0
-9.12739927853e-16 -0.018 0
2.95985939807e-16 -0.018 0
-1.12119434564e-15 -0.018 0
4.94204332327e-16 -0.018 0
1.48290110162e-16 -0.018 0
4.04155438069e-16 -0.018 0
4.74665798802e-16 -0.018 0
2.67980327189e-16 -0.018 0
-9.19695406728e-16 -0.018 0
-3.81532373268e-16 -0.018 0
-9.89947277953e-16 -0.018 0
-9.22564062786e-16 -0.018 0
3.13338105467e-16 -0.018 0
1.53795928467e-15 -0.018 0
-9.75453666691e-16 -0.018 0
-1.04909087053e-15 -0.018 0
-9.63061873388e-16 -0.018 0
1.45085693016e-16 -0.018 0
2.86816116629e-16 -0.018 0
-9.97007785605e-16 -0.018 0
4.47405718571e-16 -0.018 0
-6.68878527227e-16 -0.018 0
-8.90355158097e-16 -0.018 0
5.35734707603e-16 -0.018 0
-1.89484286594e-15 -0.018 0
-3.06202674096e-16 -0.018 0
4.94009803584e-16 -0.018 0
-2.40366110123e-16 -0.018 0
-9.78610553832e-16 -0.018 0
5.07981028752e-16 -0.018 0
-9.43927318459e-16 -0.018 0
5.54593436679e-16 -0.018 0
-1.43649541287e-16 -0.018 0
-3.19755731165e-17 -0.018 0
-1.84535818135e-16 -0.018 0
1.96954389317e-16 -0.018 0
-7.69818892235e-16 -0.018 0
-7.85225851618e-16 -0.018 0
-6.70409371981e-16 -0.018 0
-2.35531865608e-15 -0.018 0
3.53379769402e-16 -0.018 0
4.38702526065e-16 -0.018 0
-1.05923012188e-15 -0.018 0
-1.11378635265e-15 -0.018 0
-4.85456716804e-16 -0.018 0
5.96141769614e-16 -0.018 0
6.12970374693e-16 -0.018 0
1.8483546912e-16 -0.018 0
4.48576747676e-16 -0.018 0
-1.80402083371e-16 -0.018 0
-2.88530389047e-16 -0.018 0
2.01942062874e-16 -0.018 0
-4.17146304134e-16 -0.018 0
-5.40128421989e-16 -0.018 0
3.21873329922e-16 -0.018 0
2.47224171472e-16 -0.018 0
-8.44445065869e-16 -0.018 0
-1.07359951367e-15 -0.018 0
-8.28119142533e-16 -0.018 0
2.22308998034e-16 -0.018 0
8.42824631767e-16 -0.018 0
-7.8792594967e-16 -0.018 0
4.46620264419e-17 -0.018 0
-2.58076689291e-17 -0.018 0
3.03655792832e-16 -0.018 0
-1.17607250973e-15 -0.018 0
6.01400920733e-16 -0.018 0
-9.12995511256e-16 -0.018 0
2.54067429261e-16 -0.018 0
4.31327682711e-16 -0.018 0
-7.48345007668e-16 -0.018 0
8.6436699934e-17 -0.018 0
-3.32657760075e-16 -0.018 0
-5.77001717502e-16 -0.018 0
-5.30345874286e-16 -0.018 0
-1.35805636778e-16 -0.018 0
-8.9582610699e-16 -0.018 0
-5.73566431145e-16 -0.018 0
1.51142543372e-17 -0.018 0
-1.79465885214e-16 -0.018 0
-5.29415648992e-16 -0.018 0
-9.33564017898e-16 -0.018 0
-1.10881834663e-15 -0.018 0
5.55071606419e-16 -0.018 0
5.02254074395e-16 -0.018 0
3.70344825638e-17 -0.018 0
-3.20961358902e-16 -0.018 0
-8.63279882907e-16 -0.018 0
1.82919765557e-16 -0.018 0
-7.87660624871e-16 -0.018 0
3.2575088261e-16 -0.018 0
3.52654989497e-16 -0.018 0
2.69840450393e-16 -0.018 0
-2.50831345288e-16 -0.018 0
1.8175459799e-16 -0.018 0
-9.47300661706e-16 -0.018 0
3.32227394572e-16 -0.018 0
-1.00031138801e-15 -0.018 0
3.78051301197e-16 -0.018 0
7.61943208481e-17 -0.018 0
-9.7106056381e-16 -0.018 0
-7.59770186142e-16 -0.018 0
8.34875291663e-17 -0.018 0
3.85568733868e-16 -0.018 0
3.22719072726e-16 -0.018 0
2.92064405769e-16 -0.018 0
-8.92129692948e-16 -0.018 0
2.93572155357e-16 -0.018 0
9.32795822501e-16 -0.018 0
5.5086383983e-16 -0.018 0
-9.88091588205e-16 -0.018 0
-9.89693243136e-16 -0.018 0
3.69789318126e-16 -0.018 0
-1.05607067316e-15 -0.018 0
-2.3881602525e-16 -0.018 0
4.73696923921e-16 -0.018 0
2.53460747431e-16 -0.018 0
-2.9527408823e-16 -0.018 0
-9.73482234005e-16 -0.018 0
5.20860571713e-16 -0.018 0
-1.10217979228e-15 -0.018 0
5.24101730457e-16 -0.018 0
7.85693096374e-16 -0.018 0
-9.9328553313e-16 -0.018 0
-4.62013658117e-17 -0.018 0
-1.08562690093e-15 -0.018 0
4.54380105173e-16 -0.018 0
-4.17725390947e-16 -0.018 0
-1.1449548581e-15 -0.018 0
6.1274094678e-16 -0.018 0
-3.62799765975e-16 -0.018 0
-5.73116402498e-16 -0.018 0
-6.97832290606e-16 -0.018 0
-1.01903275764e-15 -0.018 0
-8.10878233983e-16 -0.018 0
3.75331857097e-16 -0.018 0
4.19325725672e-16 -0.018 0
4.88634983075e-16 -0.018 0
8.21461418331e-17 -0.018 0
1.97945153762e-16 -0.018 0
-7.84822133299e-16 -0.018 0
-9.38779423403e-16 -0.018 0
-1.05465851632e-15 -0.018 0
4.39489889499e-16 -0.018 0
4.22914785306e-16 -0.018 0
-1.10263527526e-15 -0.018 0
4.91599962324e-16 -0.018 0
-6.94191196026e-16 -0.018 0
1.56163292755e-16 -0.018 0
-7.83998556609e-16 -0.018 0
7.11739394419e-16 -0.018 0
3.16271345693e-16 -0.018 0
6.97799059401e-16 -0.018 0
4.50269892595e-16 -0.018 0
5.51459522316e-17 -0.018 0
-8.60622397271e-16 -0.018 0
2.91032733017e-16 -0.018 0
6.00745213047e-16 -0.018 0
2.55966201419e-16 -0.018 0
-8.7865962019e-16 -0.018 0
-1.00923982893e-15 -0.018 0
-9.76592330538e-16 -0.018 0
2.83927292565e-16 -0.018 0
-8.01598503731e-16 -0.018 0
1.08951039081e-16 -0.018 0
5.10021166282e-16 -0.018 0
4.38735713443e-16 -0.018 0
-4.88103550111e-16 -0.018 0
4.37446722548e-16 -0.018 0
-6.625868458e-16 -0.018 0
4.27044551396e-16 -0.018 0
3.44550909802e-16 -0.018 0
1.35051659809e-15 -0.018 0
-8.56370588007e-16 -0.018 0
-2.43476984929e-16 -0.018 0
-1.40093114174e-15 -0.018 0
-1.17639596309e-15 -0.018 0
-8.79873823101e-16 -0.018 0
-4.25287613213e-16 -0.018 0
-7.11927771465e-16 -0.018 0
-1.01589123135e-15 -0.018 0
3.29308199111e-16 -0.018 0
3.98552536742e-16 -0.018 0
-8.53885526309e-16 -0.018 0
2.65448315986e-16 -0.018 0
1.6806953887e-16 -0.018 0
-7.31366084796e-16 -0.018 0
-2.03407136379e-16 -0.018 0
-3.82418540802e-16 -0.018 0
-1.07355469402e-15 -0.018 0
2.20227876805e-16 -0.018 0
4.92759986482e-16 -0.018 0
-4.49330923602e-16 -0.018 0
3.08164948393e-16 -0.018 0
1.09526744741e-16 -0.018 0
4.30107575022e-16 -0.018 0
3.53505308136e-16 -0.018 0
-1.01670058901e-15 -0.018 0
2.1372313852e-16 -0.018 0
5.70230572909e-16 -0.018 0
-1.17438274662e-15 -0.018 0
5.72124803305e-16 -0.018 0
-2.3930843677e-16 -0.018 0
4.28148558971e-16 -0.018 0
1.1518791595e-15 -0.018 0
1.35625474488e-16 -0.018 0
7.16580751074e-16 -0.018 0
-1.00552881401e-15 -0.018 0
4.5381208983e-16 -0.018 0
-8.75601895357e-16 -0.018 0
6.75418080561e-16 -0.018 0
-9.94570823116e-16 -0.018 0
3.73039148754e-16 -0.018 0
-2.39001527275e-16 -0.018 0
4.47913647437e-16 -0.018 0
1.59589078426e-16 -0.018 0
-5.27982961005e-16 -0.018 0
-4.86544600861e-16 -0.018 0
-8.47219449185e-16 -0.018 0
-6.30715006044e-17 -0.018 0
-7.55938428911e-16 -0.018 0
4.53660819692e-16 -0.018 0
3.98185026626e-16 -0.018 0
-9.37511658893e-16 -0.018 0
6.1822892201e-18 -0.018 0
1.41544281247e-16 -0.018 0
-6.36392256264e-16 -0.018 0
-4.02287119159e-16 -0.018 0
2.38536345559e-16 -0.018 0
-6.09243940819e-16 -0.018 0
-6.08779168402e-16 -0.018 0
-8.18523902021e-16 -0.018 0
-1.42108119115e-16 -0.018 0
-5.54532135986e-16 -0.018 0
-4.72579319058e-16 -0.018 0
1.98181667033e-16 -0.018 0
9.09252746175e-17 -0.018 0
3.22813050343e-16 -0.018 0
-9.70115955708e-16 -0.018 0
4.05583403049e-16 -0.018 0
4.70342861821e-16 -0.018 0
2.77052816178e-16 -0.018 0
-1.06450599832e-15 -0.018 0
4.42540217838e-16 -0.018 0
-1.07803550276e-15 -0.018 0
-4.274312192e-16 -0.018 0
1.88165431623e-16 -0.018 0
-1.87443418218e-16 -0.018 0
-7.90658207883e-16 -0.018 0
2.13333427471e-16 -0.018 0
-1.03173113107e-15 -0.018 0
4.21770887021e-16 -0.018 0
5.456643946e-16 -0.018 0
-9.47070483088e-16 -0.018 0
-1.09368430453e-15 -0.018 0
9.32032782404e-16 -0.018 0
-7.93885055996e-16 -0.018 0
3.86960781206e-16 -0.018 0
-1.10520352206e-16 -0.018 0
1.70854426838e-16 -0.018 0
-6.22212457266e-16 -0.018 0
1.25388416578e-16 -0.018 0
-1.00224820252e-16 -0.018 0
-1.43479129673e-16 -0.018 0
-7.65809386402e-16 -0.018 0
-1.02853259807e-15 -0.018 0
3.96250366868e-16 -0.018 0
1.46675860605e-17 -0.018 0
4.24344835273e-16 -0.018 0
3.61532389878e-16 -0.018 0
-2.11582781466e-16 -0.018 0
-9.26519366885e-16 -0.018 0
3.22675627675e-16 -0.018 0
5.56618070931e-16 -0.018 0
-1.17720282246e-15 -0.018 0
6.19676840104e-16 -0.018 0
-9.72018350762e-16 -0.018 0
3.11457173501e-16 -0.018 0
-8.45799483856e-16 -0.018 0
-1.02960416248e-15 -0.018 0
4.83562609832e-16 -0.018 0
4.0882604142e-16 -0.018 0
-8.95501588526e-17 -0.018 0
5.87260889708e-16 -0.018 0
-1.06651797971e-15 -0.018 0
4.69990020958e-16 -0.018 0
2.8170712853e-17 -0.018 0
-4.57651678735e-16 -0.018 0
-1.04157761725e-15 -0.018 0
4.15900230807e-16 -0.018 0
2.42016256501e-16 -0.018 0
-1.04306512343e-15 -0.018 0
4.12288458409e-16 -0.018 0
4.7094015484e-16 -0.018 0
4.05947497336e-16 -0.018 0
1.82171178559e-15 -0.018 0
-1.18805490974e-15 -0.018 0
5.98834995798e-16 -0.018 0
3.9332478293e-16 -0.018 0
-9.80950428582e-16 -0.018 0
-1.1312080439e-15 -0.018 0
5.33535162984e-16 -0.018 0
-1.20161547771e-15 -0.018 0
-9.64856480087e-16 -0.018 0
3.4993183924e-16 -0.018 0
-8.72290015455e-16 -0.018 0
-6.34982761696e-16 -0.018 0
-1.04258603065e-15 -0.018 0
4.35800808258e-16 -0.018 0
-1.05053788063e-15 -0.018 0
-9.43640094571e-16 -0.018 0
3.39441370258e-16 -0.018 0
-9.93992601637e-16 -0.018 0
-1.5246359827e-16 -0.018 0
-9.45967359366e-16 -0.018 0