# vtk DataFile Version 2.0
Generated with Solid Solver
ASCII
DATASET UNSTRUCTURED_GRID
POINTS 999 float 
0.2 4.3001 0.0
1.4 4.3001 0.0
1.4 4.8001 0.0
0.2 4.8001 0.0
1.4 4.32033264049 0.0
1.4 4.34261203886 0.0
1.4 4.36714525371 0.0
1.4 4.3941602782 0.0
1.4 4.42390817466 0.0
1.4 4.45666541084 0.0
1.4 4.49273640748 0.0
1.4 4.5324564007 0.0
1.4 4.57619451608 0.0
1.4 4.62435723872 0.0
1.4 4.67739217343 0.0
1.4 4.73579218095 0.0
1.33333333333 4.8001 0.0
1.26666666667 4.8001 0.0
1.2 4.8001 0.0
1.13333333333 4.8001 0.0
1.06666666667 4.8001 0.0
1.0 4.8001 0.0
0.933333333334 4.8001 0.0
0.866666666668 4.8001 0.0
0.800000000001 4.8001 0.0
0.733333333334 4.8001 0.0
0.666666666668 4.8001 0.0
0.600000000001 4.8001 0.0
0.533333333334 4.8001 0.0
0.466666666667 4.8001 0.0
0.4 4.8001 0.0
0.333333333334 4.8001 0.0
0.266666666667 4.8001 0.0
0.2 4.73579218095 0.0
0.2 4.67739217343 0.0
0.2 4.62435723872 0.0
0.2 4.57619451608 0.0
0.2 4.5324564007 0.0
0.2 4.49273640748 0.0
0.2 4.45666541084 0.0
0.2 4.42390817466 0.0
0.2 4.3941602782 0.0
0.2 4.36714525371 0.0
0.2 4.34261203886 0.0
0.2 4.32033264049 0.0
0.212131543907 4.28436329506 0.0
0.224675715302 4.26895348652 0.0
0.23762369102 4.25388141198 0.0
0.250966423879 4.23915760374 0.0
0.264694484585 4.22479246611 0.0
0.278798324214 4.21079599189 0.0
0.293267939266 4.19717810803 0.0
0.308093289028 4.18394826442 0.0
0.323263842145 4.17111585877 0.0
0.338769084145 4.15868978512 0.0
0.354597997314 4.14667887342 0.0
0.37073960121 4.13509145532 0.0
0.387182441982 4.12393575334 0.0
0.403915091795 4.11321952025 0.0
0.420925712897 4.10295033813 0.0
0.438202430937 4.09313537461 0.0
0.455733079095 4.08378154223 0.0
0.473505374364 4.07489539439 0.0
0.491506842655 4.06648316882 0.0
0.509724826085 4.0585507802 0.0
0.528146580414 4.05110377808 0.0
0.546759103951 4.04414741762 0.0
0.56554943677 4.03768654322 0.0
0.584504260001 4.03172573401 0.0
0.60361041518 4.0262691282 0.0
0.622854334779 4.02132060039 0.0
0.642222678753 4.01688358113 0.0
0.661701681839 4.01296122392 0.0
0.681277836375 4.00955624851 0.0
0.700937245817 4.00667107217 0.0
0.720666255912 4.00430769845 0.0
0.740450894784 4.00246780161 0.0
0.76027736978 4.00115266363 0.0
0.780131702711 4.00036321235 0.0
0.799999999998 4.0001 0.0
0.819868297285 4.00036321235 0.0
0.839722630216 4.00115266363 0.0
0.859549105212 4.00246780161 0.0
0.879333744085 4.00430769845 0.0
0.89906275418 4.00667107217 0.0
0.918722163621 4.00955624851 0.0
0.938298318157 4.01296122392 0.0
0.957777321244 4.01688358113 0.0
0.977145665218 4.02132060039 0.0
0.996389584817 4.0262691282 0.0
1.01549574 4.03172573401 0.0
1.03445056323 4.03768654322 0.0
1.05324089605 4.04414741762 0.0
1.07185341958 4.05110377808 0.0
1.09027517391 4.0585507802 0.0
1.10849315734 4.06648316882 0.0
1.12649462563 4.07489539439 0.0
1.1442669209 4.08378154222 0.0
1.16179756906 4.0931353746 0.0
1.1790742871 4.10295033813 0.0
1.1960849082 4.11321952024 0.0
1.21281755802 4.12393575334 0.0
1.22926039879 4.13509145532 0.0
1.24540200269 4.14667887342 0.0
1.26123091585 4.15868978512 0.0
1.27673615785 4.17111585877 0.0
1.29190671097 4.18394826442 0.0
1.30673206073 4.19717810803 0.0
1.32120167579 4.21079599189 0.0
1.33530551541 4.22479246611 0.0
1.34903357612 4.23915760374 0.0
1.36237630898 4.25388141198 0.0
1.3753242847 4.26895348652 0.0
1.38786845609 4.28436329506 0.0
1.05632730172 4.43535283906 0.0
0.549964048968 4.4381053958 0.0
0.806135520676 4.28696690218 0.0
0.60389578305 4.23589310371 0.0
1.22984770884 4.35828704125 0.0
0.3703382852 4.35933552752 0.0
0.995322815839 4.23075031136 0.0
0.728315816804 4.1516935937 0.0
0.872128173905 4.14798724072 0.0
1.14059401893 4.24808468684 0.0
0.461553191009 4.24691671009 0.0
0.784706775856 4.54331390922 0.0
0.398287125272 4.55455970538 0.0
1.20625306554 4.55844743514 0.0
0.624100842742 4.1340824436 0.0
0.5257453845 4.16321776279 0.0
0.978502430793 4.12998737058 0.0
1.07419209812 4.16335154482 0.0
0.364313698077 4.26187035763 0.0
1.23509538257 4.26191716733 0.0
0.68124123937 4.36794548972 0.0
1.31679378691 4.32522066749 0.0
0.283206213094 4.32522066749 0.0
0.791498533126 4.08977141721 0.0
0.931481076052 4.3552344917 0.0
0.96671906557 4.60288042839 0.0
0.684451667517 4.08578036752 0.0
0.618335406951 4.60196910993 0.0
0.450982331762 4.17196171732 0.0
0.915674266355 4.08505633851 0.0
1.14900051594 4.17199012964 0.0
1.30193709687 4.4232448133 0.0
0.29857466761 4.42326296922 0.0
1.05734787542 4.32500107617 0.0
0.539273225177 4.32762599628 0.0
0.709896798149 4.25231026287 0.0
0.895708916005 4.24434194389 0.0
0.813273511364 4.41345766235 0.0
0.559289631452 4.10740879113 0.0
1.04001407307 4.10791539633 0.0
0.801161810585 4.20656244955 0.0
0.665113819616 4.49566650186 0.0
0.852577362173 4.06621846388 0.0
0.39025672787 4.1993806298 0.0
1.20974450479 4.19938104599 0.0
0.921542541183 4.50288058719 0.0
1.14030889032 4.33947344809 0.0
1.15600477272 4.44318538305 0.0
0.435243219029 4.4501581257 0.0
0.462045157798 4.34164654286 0.0
0.735806812738 4.05982269746 0.0
1.30082934537 4.27303772796 0.0
0.299170654625 4.27303772796 0.0
0.533651712118 4.23775983853 0.0
0.666130919144 4.19162131559 0.0
1.0676097303 4.23689469382 0.0
1.08054433577 4.56040946155 0.0
0.506773767255 4.54078295079 0.0
0.626745312844 4.07634420826 0.0
0.933845304214 4.1857954732 0.0
0.293717639664 4.52685000185 0.0
0.31250502208 4.63936411351 0.0
1.3058164124 4.52664930624 0.0
1.29054387065 4.63812765963 0.0
0.973467966326 4.07451619478 0.0
0.487935413164 4.12597084015 0.0
0.461549079751 4.66346834982 0.0
1.11203248746 4.12603503889 0.0
1.14453515393 4.68127370303 0.0
0.840217564202 4.66401146633 0.0
0.585347033288 4.18049048534 0.0
0.619177396637 4.31737576306 0.0
0.331644410315 4.22472190462 0.0
1.26835558968 4.22472190462 0.0
1.01536156978 4.17497473052 0.0
0.809331033562 4.04575709122 0.0
0.982321540791 4.30947358971 0.0
0.725600576914 4.64509651799 0.0
0.812291456186 4.14152942492 0.0
0.335887692543 4.31428235669 0.0
1.26344844681 4.31527131907 0.0
1.23449730504 4.46967441524 0.0
1.34334172096 4.38049551957 0.0
0.256658279045 4.38049551957 0.0
0.741646926828 4.31797908527 0.0
0.674799084703 4.14183768522 0.0
1.18647435526 4.28465189749 0.0
0.360563250284 4.47106479569 0.0
0.873716483853 4.31355499203 0.0
0.418704489949 4.28656264283 0.0
0.492670911224 4.20441614809 0.0
0.403480880356 4.16556776931 0.0
1.19651541215 4.1655686246 0.0
0.728649253738 4.43724546491 0.0
1.00883674467 4.37684664879 0.0
1.11035034557 4.20671841276 0.0
0.261968539765 4.2881079512 0.0
1.33803146023 4.2881079512 0.0
0.74649980488 4.1069354354 0.0
0.927597725248 4.1328597079 0.0
0.892956618256 4.05129338913 0.0
0.659794281787 4.05461387326 0.0
0.587663534405 4.06996537006 0.0
0.942353209926 4.05445300973 0.0
1.01493747319 4.06986013719 0.0
0.613130017774 4.38879803882 0.0
0.449373501074 4.12887191978 0.0
0.514840228377 4.09735850006 0.0
0.497057592 4.38843092106 0.0
1.15061382426 4.12889293084 0.0
1.08514419473 4.09738328152 0.0
0.745617635771 4.20608957592 0.0
0.875234522129 4.57363036549 0.0
0.855262884783 4.2009970831 0.0
1.01126200032 4.50790064162 0.0
1.09391916408 4.38142408872 0.0
1.04436265455 4.68992000827 0.0
0.314320181089 4.36283968607 0.0
1.28649331902 4.36253720145 0.0
0.771211579291 4.03826862024 0.0
0.432259099658 4.21516002157 0.0
0.698583889427 4.04654353526 0.0
1.16802128371 4.213962881 0.0
1.09587629216 4.2837676659 0.0
1.35920470355 4.33176960471 0.0
0.240795296449 4.33176960471 0.0
0.504003580654 4.28325758118 0.0
0.579942709371 4.5093075073 0.0
0.875915224914 4.10325792528 0.0
0.426503136644 4.38227733008 0.0
0.57541416445 4.27875301522 0.0
0.683877978289 4.30671848113 0.0
0.888061695889 4.42143509246 0.0
1.33987712478 4.47369249103 0.0
0.26012287522 4.47369249103 0.0
0.801393572636 4.34570096582 0.0
0.558460082533 4.70006728209 0.0
1.1741923373 4.38642830101 0.0
0.83220012886 4.10289415912 0.0
1.02815069622 4.27563276509 0.0
0.948308583502 4.2631204454 0.0
0.846588933095 4.48344596945 0.0
1.25632767671 4.40990360053 0.0
0.343666800815 4.40995820652 0.0
0.97849585731 4.44541535602 0.0
1.10170977548 4.49017265998 0.0
0.662193131828 4.24319398492 0.0
0.400503668388 4.24391657105 0.0
1.20117145985 4.23640427377 0.0
0.350957892513 4.19306558019 0.0
1.24904210749 4.19306558019 0.0
0.771964652188 4.16415379403 0.0
0.932165148285 4.70246281402 0.0
0.373672364094 4.70831357765 0.0
0.760245937722 4.25919350779 0.0
0.848718469252 4.03277763075 0.0
1.23385612561 4.7109294747 0.0
0.846421485813 4.25575918421 0.0
0.651597058631 4.10553284014 0.0
0.650489852551 4.69648045504 0.0
0.58457834847 4.13885088261 0.0
0.48701309933 4.16369927013 0.0
0.708495738406 4.56366947756 0.0
1.11203398596 4.16388062515 0.0
0.54865558244 4.07760047869 0.0
1.05126102377 4.07744629471 0.0
0.300013757486 4.23769646442 0.0
1.29998624251 4.23769646442 0.0
0.9465032388 4.10228070354 0.0
0.708587583337 4.11656095907 0.0
0.973348904468 4.17047871864 0.0
0.628721855632 4.17048356945 0.0
0.380175010019 4.31531880077 0.0
0.662092932411 4.43409041267 0.0
1.05133526787 4.19731992007 0.0
0.528087045766 4.61837882187 0.0
1.22233124543 4.31031693908 0.0
1.19001193434 4.33783586668 0.0
0.853024099244 4.37054003492 0.0
0.542800296246 4.19834366905 0.0
0.247706318737 4.42749119247 0.0
1.35229368126 4.42749119247 0.0
0.599153768578 4.10463797005 0.0
1.01616570494 4.13737683178 0.0
0.744705786938 4.38079544575 0.0
1.31929001115 4.71212550052 0.0
0.777615355331 4.12623602511 0.0
0.265621610877 4.58485488866 0.0
1.33132411895 4.58141378639 0.0
0.532023338888 4.12884454388 0.0
1.0697792195 4.12751429251 0.0
0.286371037106 4.70520312914 0.0
0.497725885905 4.47663668256 0.0
0.46053455822 4.29097947599 0.0
0.433799237968 4.52139400991 0.0
0.388624781906 4.62604200004 0.0
0.554823673752 4.37961940232 0.0
1.1421595646 4.29328301431 0.0
1.14760043966 4.59165103139 0.0
1.21258698805 4.62830200685 0.0
1.16279096046 4.50802621409 0.0
0.995762647814 4.10018772517 0.0
0.456229040627 4.58966685246 0.0
0.707289391156 4.19030271873 0.0
0.763036833302 4.71795445535 0.0
[...]
POINT_DATA 999
VECTORS Displacement float
-8.9678373688e-16 -0.0135 0
2.99147286977e-16 -0.0135 0
0.0 -0.0135 0
0.0 -0.0135 0
2.66310011666e-16 -0.0135 0
2.33777675687e-16 -0.0135 0
2.03775191065e-16 -0.0135 0
1.73802267422e-16 -0.0135 0
1.49960037557e-16 -0.0135 0
1.30357581917e-16 -0.0135 0
1.24347758692e-16 -0.0135 0
1.30602503001e-16 -0.0135 0
1.52479408167e-16 -0.0135 0
1.63399504167e-16 -0.0135 0
6.97712823634e-17 -0.0135 0
-3.85049028607e-16 -0.0135 0
0.0 -0.0135 0
0.0 -0.0135 0
0.0 -0.0135 0
0.0 -0.0135 0
0.0 -0.0135 0
0.0 -0.0135 0
0.0 -0.0135 0
0.0 -0.0135 0
0.0 -0.0135 0
0.0 -0.0135 0
0.0 -0.0135 0
0.0 -0.0135 0
0.0 -0.0135 0
0.0 -0.0135 0
0.0 -0.0135 0
0.0 -0.0135 0
0.0 -0.0135 0
3.7770396524e-16 -0.0135 0
-4.58645661972e-17 -0.0135 0
-2.99399143078e-16 -0.0135 0
-4.29159052985e-16 -0.0135 0
-5.16012478292e-16 -0.0135 0
-5.8189453115e-16 -0.0135 0
-6.38224308189e-16 -0.0135 0
-6.87123877576e-16 -0.0135 0
-7.29822087145e-16 -0.0135 0
-7.7423983026e-16 -0.0135 0
-8.12520837869e-16 -0.0135 0
-8.51782916323e-16 -0.0135 0
-9.35383613827e-16 -0.0135 0
-9.74731969597e-16 -0.0135 0
-1.01397743103e-15 -0.0135 0
-1.04736302733e-15 -0.0135 0
-1.07751471326e-15 -0.0135 0
-1.10492296928e-15 -0.0135 0
-1.12689400325e-15 -0.0135 0
-1.14302294614e-15 -0.0135 0
-1.15634695576e-15 -0.0135 0
-1.1661514041e-15 -0.0135 0
-1.17090269852e-15 -0.0135 0
-1.17127547429e-15 -0.0135 0
-1.16491749175e-15 -0.0135 0
-1.15391828813e-15 -0.0135 0
-1.14070279468e-15 -0.0135 0
-1.12059500758e-15 -0.0135 0
-1.09461464056e-15 -0.0135 0
-1.06651000744e-15 -0.0135 0
-1.03312045174e-15 -0.0135 0
-9.94285997741e-16 -0.0135 0
-9.54624459086e-16 -0.0135 0
-9.09699027874e-16 -0.0135 0
-8.6152867765e-16 -0.0135 0
-8.09894726471e-16 -0.0135 0
-7.54292434722e-16 -0.0135 0
-6.97958682667e-16 -0.0135 0
-6.38070364086e-16 -0.0135 0
-5.77091222477e-16 -0.0135 0
-5.12356447828e-16 -0.0135 0
-4.49760202138e-16 -0.0135 0
-3.85384547125e-16 -0.0135 0
-3.19142449688e-16 -0.0135 0
-2.52343597763e-16 -0.0135 0
-1.87585156288e-16 -0.0135 0
-1.23633008597e-16 -0.0135 0
-6.01747022602e-17 -0.0135 0
1.97572926829e-18 -0.0135 0
6.34787899399e-17 -0.0135 0
1.21099376301e-16 -0.0135 0
1.78645618229e-16 -0.0135 0
2.32298136551e-16 -0.0135 0
2.8483991857e-16 -0.0135 0
3.31056532099e-16 -0.0135 0
3.74863732751e-16 -0.0135 0
4.14867492051e-16 -0.0135 0
4.52076650309e-16 -0.0135 0
4.85357320601e-16 -0.0135 0
5.14081234557e-16 -0.0135 0
5.38389887378e-16 -0.0135 0
5.60143504285e-16 -0.0135 0
5.77379888064e-16 -0.0135 0
5.91648553103e-16 -0.0135 0
6.00166727223e-16 -0.0135 0
6.05746296753e-16 -0.0135 0
6.07341048617e-16 -0.0135 0
6.02779984464e-16 -0.0135 0
5.96863543967e-16 -0.0135 0
5.89283038097e-16 -0.0135 0
5.74719524221e-16 -0.0135 0
5.57932934224e-16 -0.0135 0
5.39240100657e-16 -0.0135 0
5.17056391443e-16 -0.0135 0
4.93889906837e-16 -0.0135 0
4.69583605409e-16 -0.0135 0
4.42576505502e-16 -0.0135 0
4.1387642438e-16 -0.0135 0
3.8431488839e-16 -0.0135 0
3.55984074316e-16 -0.0135 0
3.26823224383e-16 -0.0135 0
4.50544049721e-16 -0.0135 0
-1.00516900409e-15 -0.0135 0
-9.12973671724e-17 -0.0135 0
-7.51452021196e-16 -0.0135 0
2.69582033922e-16 -0.0135 0
-8.85308094703e-16 -0.0135 0
3.23966378643e-16 -0.0135 0
-3.81449283544e-16 -0.0135 0
4.57191132849e-17 -0.0135 0
3.9887013089e-16 -0.0135 0
-9.57951622287e-16 -0.0135 0
1.1078297828e-16 -0.0135 0
-5.69309195162e-16 -0.0135 0
-7.81693816252e-18 -0.0135 0
-6.81894858435e-16 -0.0135 0
-9.01716408743e-16 -0.0135 0
2.92582634552e-16 -0.0135 0
4.17516802338e-16 -0.0135 0
-9.83637596457e-16 -0.0135 0
3.75812354166e-16 -0.0135 0
-6.40665625681e-16 -0.0135 0
2.712790802e-16 -0.0135 0
-8.77832638307e-16 -0.0135 0
-1.82356564593e-16 -0.0135 0
3.89143887743e-16 -0.0135 0
9.18314034751e-16 -0.0135 0
-5.10515056206e-16 -0.0135 0
-1.55967849922e-15 -0.0135 0
-1.01497776391e-15 -0.0135 0
1.68718453453e-16 -0.0135 0
4.71928781779e-16 -0.0135 0
1.77562992378e-16 -0.0135 0
-7.63221730941e-16 -0.0135 0
4.00706326208e-16 -0.0135 0
-9.10700886698e-16 -0.0135 0
-4.5379635973e-16 -0.0135 0
1.53602338192e-16 -0.0135 0
9.76913433173e-17 -0.0135 0
-8.49004563677e-16 -0.0135 0
4.15817643925e-16 -0.0135 0
-1.47768695545e-16 -0.0135 0
-1.05233820428e-15 -0.0135 0
6.63231429912e-18 -0.0135 0
-1.05077242645e-15 -0.0135 0
4.62494493813e-16 -0.0135 0
8.60162813138e-16 -0.0135 0
3.47025996064e-16 -0.0135 0
2.46306885248e-16 -0.0135 0
-8.56569048695e-16 -0.0135 0
-9.32312412981e-16 -0.0135 0
-3.47870359311e-16 -0.0135 0
3.51535338861e-16 -0.0135 0
-9.67468572739e-16 -0.0135 0
-8.81082693283e-16 -0.0135 0
-5.75067004398e-16 -0.0135 0
3.84458998504e-16 -0.0135 0
2.61310020458e-16 -0.0135 0
-9.03396992214e-16 -0.0135 0
-6.78726505743e-16 -0.0135 0
2.03550830111e-16 -0.0135 0
-6.17360004759e-16 -0.0135 0
-3.98207959808e-16 -0.0135 0
1.45159116953e-16 -0.0135 0
2.09006905185e-16 -0.0135 0
3.12265711337e-16 -0.0135 0
-9.93114282651e-16 -0.0135 0
-1.57191951688e-16 -0.0135 0
4.9529041315e-16 -0.0135 0
-4.24716539402e-16 -0.0135 0
1.91896623069e-15 -0.0135 0
-7.77716447523e-16 -0.0135 0
-7.73660477198e-16 -0.0135 0
-1.04818014436e-15 -0.0135 0
4.32863591776e-16 -0.0135 0
3.41937191546e-16 -0.0135 0
-1.15455201467e-16 -0.0135 0
3.71936223596e-16 -0.0135 0
-1.58921688108e-15 -0.0135 0
-1.24099909815e-16 -0.0135 0
-9.14866852503e-16 -0.0135 0
3.00015597853e-16 -0.0135 0
1.50867092745e-16 -0.0135 0
2.01897749542e-16 -0.0135 0
-7.86603269155e-16 -0.0135 0
-3.48200506171e-16 -0.0135 0
-5.41958330482e-16 -0.0135 0
3.61983899565e-16 -0.0135 0
-7.42784088511e-16 -0.0135 0
1.74093688877e-16 -0.0135 0
-9.53355384322e-16 -0.0135 0
-9.40926579443e-16 -0.0135 0
-1.08078831838e-15 -0.0135 0
5.10110958502e-16 -0.0135 0
-4.9680851743e-16 -0.0135 0
4.63761682825e-16 -0.0135 0
4.17618813805e-16 -0.0135 0
-9.33519144177e-16 -0.0135 0
3.22940864508e-16 -0.0135 0
-3.20464845859e-16 -0.0135 0
1.84451175638e-16 -0.0135 0
1.27038035008e-16 -0.0135 0
-5.82487954554e-16 -0.0135 0
-7.88525476116e-16 -0.0135 0
2.56093125098e-16 -0.0135 0
4.05349456623e-16 -0.0135 0
-8.88305698808e-16 -0.0135 0
-1.05844868859e-15 -0.0135 0
-9.56422738571e-16 -0.0135 0
-9.46536819658e-16 -0.0135 0
5.32733238851e-16 -0.0135 0
4.97036994883e-16 -0.0135 0
-3.28009874348e-16 -0.0135 0
1.20207929421e-15 -0.0135 0
1.48098787293e-17 -0.0135 0
6.05751327588e-16 -0.0135 0
3.82861533011e-16 -0.0135 0
2.94941610169e-17 -0.0135 0
-8.46944899565e-16 -0.0135 0
2.38870827025e-16 -0.0135 0
-2.31170858483e-16 -0.0135 0
-1.00023286769e-15 -0.0135 0
-4.62068787792e-16 -0.0135 0
4.32122935884e-16 -0.0135 0
3.86255706721e-16 -0.0135 0
2.5462445589e-16 -0.0135 0
-8.46541078986e-16 -0.0135 0
-9.22228263646e-16 -0.0135 0
-1.12106311726e-15 -0.0135 0
5.95226678624e-17 -0.0135 0
-9.01873180046e-16 -0.0135 0
-8.32177945952e-16 -0.0135 0
-5.70767644759e-16 -0.0135 0
4.76839494298e-16 -0.0135 0
1.46484558442e-16 -0.0135 0
-6.69782315517e-16 -0.0135 0
-6.51573450089e-17 -0.0135 0
-6.23177774353e-16 -0.0135 0
2.85886202227e-16 -0.0135 0
-6.33109455586e-17 -0.0135 0
3.72608707092e-16 -0.0135 0
2.76269745424e-16 -0.0135 0
5.42493923363e-16 -0.0135 0
2.03076460589e-16 -0.0135 0
-8.12026887483e-16 -0.0135 0
6.06106965518e-16 -0.0135 0
2.97994959967e-16 -0.0135 0
-6.00970887202e-16 -0.0135 0
-9.95437916951e-16 -0.0135 0
4.11120334382e-16 -0.0135 0
-1.09166327843e-15 -0.0135 0
4.84767645575e-16 -0.0135 0
-2.45948337814e-16 -0.0135 0
7.49137468719e-16 -0.0135 0
3.06205728978e-17 -0.0135 0
-2.77649443977e-16 -0.0135 0
1.07202415584e-17 -0.0135 0
4.2609843364e-17 -0.0135 0
2.4786465711e-17 -0.0135 0
-6.06442295594e-16 -0.0135 0
-1.77409998174e-15 -0.0135 0
-7.82055881374e-16 -0.0135 0
-9.68937958285e-16 -0.0135 0
-1.05770184169e-15 -0.0135 0
4.53623061831e-16 -0.0135 0
-8.87311589943e-16 -0.0135 0
4.65759694107e-16 -0.0135 0
-1.03558403465e-15 -0.0135 0
4.12746722879e-16 -0.0135 0
2.35638357108e-16 -0.0135 0
-4.38696036304e-16 -0.0135 0
2.77223237525e-16 -0.0135 0
-6.73008134101e-16 -0.0135 0
-9.28604177598e-16 -0.0135 0
-8.46941987993e-16 -0.0135 0
3.80241019531e-16 -0.0135 0
-8.55575088929e-16 -0.0135 0
3.2194083321e-16 -0.0135 0
3.14079297502e-16 -0.0135 0
2.05499999518e-16 -0.0135 0
-8.66193919643e-16 -0.0135 0
-7.19787185973e-16 -0.0135 0
1.61548133982e-16 -0.0135 0
-7.49975744615e-16 -0.0135 0
3.56679722238e-16 -0.0135 0
-3.44107735097e-16 -0.0135 0
8.1629990204e-17 -0.0135 0
-2.27509324011e-16 -0.0135 0
-5.04921951658e-16 -0.0135 0
1.95835563315e-16 -0.0135 0
-9.02030081732e-16 -0.0135 0
4.40958818434e-16 -0.0135 0
-1.1173140555e-16 -0.0135 0
-9.39437020823e-16 -0.0135 0
-9.44047507182e-16 -0.0135 0
-7.2295916916e-16 -0.0135 0
-2.68550590324e-16 -0.0135 0
-9.43613057552e-16 -0.0135 0
3.70726942847e-16 -0.0135 0
-1.13913666178e-16 -0.0135 0
-2.050193527e-16 -0.0135 0
1.30843562056e-16 -0.0135 0
3.42392031023e-16 -0.0135 0
-5.36699929473e-16 -0.0135 0
-4.486226311e-16 -0.0135 0
-4.41695215568e-16 -0.0135 0
-1.14334895317e-17 -0.0135 0
2.90076876288e-16 -0.0135 0
-1.09386521658e-15 -0.0135 0
1.09022203032e-16 -0.0135 0
5.44208381676e-16 -0.0135 0
1.49733255652e-16 -0.0135 0
-3.49829397005e-16 -0.0135 0
-9.92857837222e-16 -0.0135 0
3.76770725804e-16 -0.0135 0
-1.10897027179e-15 -0.0135 0
5.18845827101e-16 -0.0135 0
-1.02062027668e-15 -0.0135 0
-9.17295928135e-16 -0.0135 0
-2.56003627025e-16 -0.0135 0
-7.89039428556e-16 -0.0135 0
-1.02919734533e-15 -0.0135 0
4.23757786833e-16 -0.0135 0
-7.15512008546e-16 -0.0135 0
2.15766490191e-16 -0.0135 0
2.56618163038e-16 -0.0135 0
-9.9458890425e-16 -0.0135 0
3.7293061586e-16 -0.0135 0
4.76601389919e-17 -0.0135 0
-8.34713869538e-16 -0.0135 0
-8.8909088708e-16 -0.0135 0
2.89773606042e-16 -0.0135 0
-6.97235648953e-16 -0.0135 0
-3.80422026863e-17 -0.0135 0
-5.30094090227e-16 -0.0135 0
1.02233854138e-16 -0.0135 0
-9.29091151853e-16 -0.0135 0
-4.21609994369e-16 -0.0135 0
-1.332472206e-16 -0.0135 0
-8.70333457751e-17 -0.0135 0
3.78373061621e-16 -0.0135 0
3.97426022653e-16 -0.0135 0
-7.03900710299e-16 -0.0135 0
1.96920955167e-16 -0.0135 0
3.41734294288e-16 -0.0135 0
3.3137483306e-16 -0.0135 0
-9.12466427718e-16 -0.0135 0
2.99782865728e-16 -0.0135 0
9.57561331384e-16 -0.0135 0
-9.30449951312e-16 -0.0135 0
-8.06621984102e-16 -0.0135 0
3.87787944564e-16 -0.0135 0
-1.3216512538e-15 -0.0135 0
5.08215784961e-16 -0.0135 0
-1.02932924879e-15 -0.0135 0
5.35970187441e-16 -0.0135 0
-9.77785998174e-16 -0.0135 0
4.34610184751e-16 -0.0135 0
-6.06827329764e-16 -0.0135 0
1.51137549916e-16 -0.0135 0
-6.94173747788e-16 -0.0135 0
3.57663096316e-16 -0.0135 0
-8.47324710917e-16 -0.0135 0
5.74800424042e-16 -0.0135 0
8.3101264177e-17 -0.0135 0
5.23930096846e-16 -0.0135 0
2.18894827323e-16 -0.0135 0
-8.0241050041e-16 -0.0135 0
-1.04120461887e-15 -0.0135 0
8.47173778373e-17 -0.0135 0
4.76822440496e-16 -0.0135 0
-5.17059220349e-16 -0.0135 0
1.40713622118e-15 -0.0135 0
-2.4993322851e-16 -0.0135 0
4.30563762398e-16 -0.0135 0
-8.7269919999e-16 -0.0135 0
2.29869783668e-16 -0.0135 0
-8.29846633865e-16 -0.0135 0
1.00299734097e-16 -0.0135 0
-6.47495088346e-16 -0.0135 0
1.34159136845e-16 -0.0135 0
3.89161864885e-16 -0.0135 0
-5.32471564471e-16 -0.0135 0
-1.53310801565e-16 -0.0135 0
-3.17738517858e-17 -0.0135 0
-9.18704135196e-16 -0.0135 0
-9.74281314362e-16 -0.0135 0
-1.09570563885e-15 -0.0135 0
4.78236793392e-16 -0.0135 0
5.05046285538e-17 -0.0135 0
1.65662217519e-16 -0.0135 0
-5.48584756393e-17 -0.0135 0
2.29575160209e-16 -0.0135 0
-9.47598166313e-16 -0.0135 0
3.35645677999e-16 -0.0135 0
4.06750596162e-16 -0.0135 0
-3.75099184917e-16 -0.0135 0
-1.34275460695e-16 -0.0135 0
3.32064385475e-16 -0.0135 0
-1.10925208581e-15 -0.0135 0
-6.2474758221e-16 -0.0135 0
4.21969419247e-16 -0.0135 0
3.84382119356e-16 -0.0135 0
3.06888084198e-16 -0.0135 0
3.38806129578e-16 -0.0135 0
-7.67273269646e-16 -0.0135 0
-7.57745698092e-16 -0.0135 0
-6.04866385833e-16 -0.0135 0
-6.91435496445e-16 -0.0135 0
-8.81194801278e-16 -0.0135 0
2.70776646069e-16 -0.0135 0
-1.07655169842e-15 -0.0135 0
4.5331208052e-16 -0.0135 0
1.26243459399e-16 -0.0135 0
3.70123525098e-16 -0.0135 0
4.49900708297e-16 -0.0135 0
2.39034791568e-16 -0.0135 0
-8.85102889598e-16 -0.0135 0
-3.74168047037e-16 -0.0135 0
-9.54729304746e-16 -0.0135 0
-8.90056300636e-16 -0.0135 0
2.86337582874e-16 -0.0135 0
1.46982331022e-15 -0.0135 0
-9.38245972662e-16 -0.0135 0
-1.00968655485e-15 -0.0135 0
-9.28723921918e-16 -0.0135 0
1.27133858841e-16 -0.0135 0
2.54630170985e-16 -0.0135 0
-9.62181738223e-16 -0.0135 0
4.08135978983e-16 -0.0135 0
-6.13874065893e-16 -0.0135 0
-8.56973761906e-16 -0.0135 0
4.90968036868e-16 -0.0135 0
-1.82322966305e-15 -0.0135 0
-3.03851970466e-16 -0.0135 0
4.49828871687e-16 -0.0135 0
-2.38269462817e-16 -0.0135 0
-9.40778819343e-16 -0.0135 0
4.63480145325e-16 -0.0135 0
-9.09241171721e-16 -0.0135 0
5.07609637422e-16 -0.0135 0
-1.49952874069e-16 -0.0135 0
-4.25241849342e-17 -0.0135 0
-1.89062729267e-16 -0.0135 0
1.79827253204e-16 -0.0135 0
-7.46817758564e-16 -0.0135 0
-7.58170028097e-16 -0.0135 0
-6.52199912792e-16 -0.0135 0
-2.27149998862e-15 -0.0135 0
3.18577542573e-16 -0.0135 0
3.98213400918e-16 -0.0135 0
-1.01858554317e-15 -0.0135 0
-1.07047102881e-15 -0.0135 0
-4.73336200382e-16 -0.0135 0
5.45364754712e-16 -0.0135 0
5.62215043439e-16 -0.0135 0
1.74447567225e-16 -0.0135 0
4.29607269279e-16 -0.0135 0
-1.82056671089e-16 -0.0135 0
-2.88746520433e-16 -0.0135 0
1.75071723155e-16 -0.0135 0
-4.1057797877e-16 -0.0135 0
-5.26812573953e-16 -0.0135 0
2.93833572012e-16 -0.0135 0
2.2688061926e-16 -0.0135 0
-8.18367670454e-16 -0.0135 0
-1.03690495927e-15 -0.0135 0
-8.04051479507e-16 -0.0135 0
2.0662473439e-16 -0.0135 0
7.9756344267e-16 -0.0135 0
-7.60479369233e-16 -0.0135 0
4.95176588774e-17 -0.0135 0
-3.81245888414e-17 -0.0135 0
2.78609382522e-16 -0.0135 0
-1.12665495064e-15 -0.0135 0
5.5285046487e-16 -0.0135 0
-8.79790677181e-16 -0.0135 0
2.26651149238e-16 -0.0135 0
3.91679660058e-16 -0.0135 0
-7.23873510621e-16 -0.0135 0
8.61436235874e-17 -0.0135 0
-3.27207646466e-16 -0.0135 0
-5.61741043873e-16 -0.0135 0
-5.17556184671e-16 -0.0135 0
-1.41897394802e-16 -0.0135 0
-8.65984493229e-16 -0.0135 0
-5.57907413182e-16 -0.0135 0
1.49636192159e-18 -0.0135 0
-1.82921290413e-16 -0.0135 0
-5.18781912587e-16 -0.0135 0
-8.98563770518e-16 -0.0135 0
-1.06217402562e-15 -0.0135 0
5.09423514531e-16 -0.0135 0
4.57659254158e-16 -0.0135 0
2.62773296215e-17 -0.0135 0
-3.2030960024e-16 -0.0135 0
-8.3291464045e-16 -0.0135 0
1.69853272462e-16 -0.0135 0
-7.65814493622e-16 -0.0135 0
2.8168780921e-16 -0.0135 0
3.18210368757e-16 -0.0135 0
2.48919015123e-16 -0.0135 0
-2.51816387996e-16 -0.0135 0
1.56104400365e-16 -0.0135 0
-9.13629687884e-16 -0.0135 0
3.02996837275e-16 -0.0135 0
-9.62348392783e-16 -0.0135 0
3.46570196127e-16 -0.0135 0
5.7706929671e-17 -0.0135 0
-9.3515326574e-16 -0.0135 0
-7.35433969314e-16 -0.0135 0
8.2338605074e-17 -0.0135 0
3.513968121e-16 -0.0135 0
2.89823871908e-16 -0.0135 0
2.66158827943e-16 -0.0135 0
-8.60265917789e-16 -0.0135 0
2.69539462632e-16 -0.0135 0
8.81525546447e-16 -0.0135 0
5.17957329528e-16 -0.0135 0
-9.51097523805e-16 -0.0135 0
-9.53495974006e-16 -0.0135 0
3.38073528293e-16 -0.0135 0
-1.01466808341e-15 -0.0135 0
-2.37192682522e-16 -0.0135 0
4.34242381773e-16 -0.0135 0
2.2564657372e-16 -0.0135 0
-2.94176688598e-16 -0.0135 0
-9.37741134718e-16 -0.0135 0
4.75247614832e-16 -0.0135 0
-1.05730569342e-15 -0.0135 0
4.80452152813e-16 -0.0135 0
7.43911352931e-16 -0.0135 0
-9.55141016318e-16 -0.0135 0
-8.27452242704e-17 -0.0135 0
-1.04374750401e-15 -0.0135 0
4.17018703305e-16 -0.0135 0
-4.11813441464e-16 -0.0135 0
-1.0986476771e-15 -0.0135 0
5.62271187134e-16 -0.0135 0
-3.56530599733e-16 -0.0135 0
-5.56949958034e-16 -0.0135 0
-6.84372963906e-16 -0.0135 0
-9.79577699815e-16 -0.0135 0
-7.86955181256e-16 -0.0135 0
3.45690028805e-16 -0.0135 0
3.89126060346e-16 -0.0135 0
4.47286127195e-16 -0.0135 0
6.60797032457e-17 -0.0135 0
1.8153604206e-16 -0.0135 0
-7.62358940926e-16 -0.0135 0
-9.05042508914e-16 -0.0135 0
-1.01315666044e-15 -0.0135 0
4.01549281187e-16 -0.0135 0
3.87673005194e-16 -0.0135 0
-1.0574600325e-15 -0.0135 0
4.50481996218e-16 -0.0135 0
-6.79408800605e-16 -0.0135 0
1.46295334182e-16 -0.0135 0
-7.59289965713e-16 -0.0135 0
6.80719599187e-16 -0.0135 0
2.94048122035e-16 -0.0135 0
6.56723644552e-16 -0.0135 0
4.12220906356e-16 -0.0135 0
3.97514602181e-17 -0.0135 0
-8.30037995069e-16 -0.0135 0
2.60332779512e-16 -0.0135 0
5.65496659386e-16 -0.0135 0
2.35012211344e-16 -0.0135 0
-8.50491054904e-16 -0.0135 0
-9.71299261045e-16 -0.0135 0
-9.38112186537e-16 -0.0135 0
2.55298392389e-16 -0.0135 0
-7.75132809161e-16 -0.0135 0
8.86346071489e-17 -0.0135 0
4.76629068623e-16 -0.0135 0
4.07409563548e-16 -0.0135 0
-4.73508105574e-16 -0.0135 0
3.98891910478e-16 -0.0135 0
-6.43343166414e-16 -0.0135 0
3.95278773391e-16 -0.0135 0
3.17779675574e-16 -0.0135 0
1.28404428155e-15 -0.0135 0
-8.27170055971e-16 -0.0135 0
-2.43286060322e-16 -0.0135 0
-1.35493063092e-15 -0.0135 0
-1.13473984827e-15 -0.0135 0
-8.46905957866e-16 -0.0135 0
-4.16034313657e-16 -0.0135 0
-6.91736085918e-16 -0.0135 0
-9.7692014997e-16 -0.0135 0
2.96330921607e-16 -0.0135 0
3.59374238087e-16 -0.0135 0
-8.25558163749e-16 -0.0135 0
2.41884728347e-16 -0.0135 0
1.56484315166e-16 -0.0135 0
-7.14324984411e-16 -0.0135 0
-2.07977373163e-16 -0.0135 0
-3.74634465905e-16 -0.0135 0
-1.03178055883e-15 -0.0135 0
1.94999582289e-16 -0.0135 0
4.70297652051e-16 -0.0135 0
-4.47751114589e-16 -0.0135 0
2.84230315603e-16 -0.0135 0
9.01713543028e-17 -0.0135 0
3.92288078437e-16 -0.0135 0
3.22016089214e-16 -0.0135 0
-9.76007794776e-16 -0.0135 0
1.86747710183e-16 -0.0135 0
5.23030663564e-16 -0.0135 0
-1.12504534836e-15 -0.0135 0
5.24995942821e-16 -0.0135 0
-2.63509737726e-16 -0.0135 0
3.96693007519e-16 -0.0135 0
1.09600309113e-15 -0.0135 0
1.14699396098e-16 -0.0135 0
6.77339963474e-16 -0.0135 0
-9.67821419244e-16 -0.0135 0
4.24255908344e-16 -0.0135 0
-8.45192970319e-16 -0.0135 0
6.3643436534e-16 -0.0135 0
-9.5795578466e-16 -0.0135 0
3.41641023056e-16 -0.0135 0
-2.39308532154e-16 -0.0135 0
4.10435071816e-16 -0.0135 0
1.63506259845e-16 -0.0135 0
-5.26539540452e-16 -0.0135 0
-4.76537340239e-16 -0.0135 0
-8.15433090791e-16 -0.0135 0
-7.22066753052e-17 -0.0135 0
-7.31761766952e-16 -0.0135 0
4.11082725168e-16 -0.0135 0
3.61260871512e-16 -0.0135 0
-9.06697721515e-16 -0.0135 0
3.36357331362e-17 -0.0135 0
1.37981368651e-16 -0.0135 0
-6.26342657436e-16 -0.0135 0
-3.9675967962e-16 -0.0135 0
2.25904874347e-16 -0.0135 0
-5.92923293965e-16 -0.0135 0
-5.92555465255e-16 -0.0135 0
-7.9417380717e-16 -0.0135 0
-1.24033906412e-16 -0.0135 0
-5.13680325686e-16 -0.0135 0
-4.63259773088e-16 -0.0135 0
1.8324116586e-16 -0.0135 0
7.30860823568e-17 -0.0135 0
2.92100039573e-16 -0.0135 0
-9.35897852162e-16 -0.0135 0
3.70737240108e-16 -0.0135 0
4.28485943983e-16 -0.0135 0
2.47063253048e-16 -0.0135 0
-1.0224648059e-15 -0.0135 0
4.05064326703e-16 -0.0135 0
-1.03404730916e-15 -0.0135 0
-4.3509206166e-16 -0.0135 0
2.01857424436e-16 -0.0135 0
-1.90044081094e-16 -0.0135 0
-7.66232322505e-16 -0.0135 0
1.94953029314e-16 -0.0135 0
-9.92007550457e-16 -0.0135 0
3.89463643637e-16 -0.0135 0
4.9918230367e-16 -0.0135 0
-9.1193351423e-16 -0.0135 0
-1.05736847208e-15 -0.0135 0
8.81289468997e-16 -0.0135 0
-7.72736279518e-16 -0.0135 0
3.54036086062e-16 -0.0135 0
-1.19602529187e-16 -0.0135 0
1.41312447053e-16 -0.0135 0
-6.07751500664e-16 -0.0135 0
1.67849033341e-16 -0.0135 0
-1.09202334044e-16 -0.0135 0
-1.50000297006e-16 -0.0135 0
-7.38779958215e-16 -0.0135 0
-9.90544706049e-16 -0.0135 0
3.65253285205e-16 -0.0135 0
5.0300485988e-19 -0.0135 0
3.89389748219e-16 -0.0135 0
3.31630165491e-16 -0.0135 0
-1.8967007138e-16 -0.0135 0
-8.92004874082e-16 -0.0135 0
2.94957745723e-16 -0.0135 0
5.09187439983e-16 -0.0135 0
-1.1277004967e-15 -0.0135 0
5.68767629339e-16 -0.0135 0
-9.36243199964e-16 -0.0135 0
2.86693476764e-16 -0.0135 0
-8.1572231718e-16 -0.0135 0
-9.89343248336e-16 -0.0135 0
4.40539599733e-16 -0.0135 0
3.76473291457e-16 -0.0135 0
-9.95271329289e-17 -0.0135 0
5.37330540129e-16 -0.0135 0
-1.02601923997e-15 -0.0135 0
4.30369179512e-16 -0.0135 0
1.08443107921e-17 -0.0135 0
-4.57675985489e-16 -0.0135 0
-1.00110596189e-15 -0.0135 0