# vtk DataFile Version 2.0
Generated with Solid Solver
ASCII
DATASET UNSTRUCTURED_GRID
POINTS 999 float 
0.2 4.3001 0.0
1.4 4.3001 0.0
1.4 4.8001 0.0
0.2 4.8001 0.0
1.4 4.32033264049 0.0
1.4 4.34261203886 0.0
1.4 4.36714525371 0.0
1.4 4.3941602782 0.0
1.4 4.42390817466 0.0
1.4 4.45666541084 0.0
1.4 4.49273640748 0.0
1.4 4.5324564007 0.0
1.4 4.57619451608 0.0
1.4 4.62435723872 0.0
1.4 4.67739217343 0.0
1.4 4.73579218095 0.0
1.33333333333 4.8001 0.0
1.26666666667 4.8001 0.0
1.2 4.8001 0.0
1.13333333333 4.8001 0.0
1.06666666667 4.8001 0.0
1.0 4.8001 0.0
0.933333333334 4.8001 0.0
0.866666666668 4.8001 0.0
0.800000000001 4.8001 0.0
0.733333333334 4.8001 0.0
0.666666666668 4.8001 0.0
0.600000000001 4.8001 0.0
0.533333333334 4.8001 0.0
0.466666666667 4.8001 0.0
0.4 4.8001 0.0
0.333333333334 4.8001 0.0
0.266666666667 4.8001 0.0
0.2 4.73579218095 0.0
0.2 4.67739217343 0.0
0.2 4.62435723872 0.0
0.2 4.57619451608 0.0
0.2 4.5324564007 0.0
0.2 4.49273640748 0.0
0.2 4.45666541084 0.0
0.2 4.42390817466 0.0
0.2 4.3941602782 0.0
0.2 4.36714525371 0.0
0.2 4.34261203886 0.0
0.2 4.32033264049 0.0
0.212131543907 4.28436329506 0.0
0.224675715302 4.26895348652 0.0
0.23762369102 4.25388141198 0.0
0.250966423879 4.23915760374 0.0
0.264694484585 4.22479246611 0.0
0.278798324214 4.21079599189 0.0
0.293267939266 4.19717810803 0.0
0.308093289028 4.18394826442 0.0
0.323263842145 4.17111585877 0.0
0.338769084145 4.15868978512 0.0
0.354597997314 4.14667887342 0.0
0.37073960121 4.13509145532 0.0
0.387182441982 4.12393575334 0.0
0.403915091795 4.11321952025 0.0
0.420925712897 4.10295033813 0.0
0.438202430937 4.09313537461 0.0
0.455733079095 4.08378154223 0.0
0.473505374364 4.07489539439 0.0
0.491506842655 4.06648316882 0.0
0.509724826085 4.0585507802 0.0
0.528146580414 4.05110377808 0.0
0.546759103951 4.04414741762 0.0
0.56554943677 4.03768654322 0.0
0.584504260001 4.03172573401 0.0
0.60361041518 4.0262691282 0.0
0.622854334779 4.02132060039 0.0
0.642222678753 4.01688358113 0.0
0.661701681839 4.01296122392 0.0
0.681277836375 4.00955624851 0.0
0.700937245817 4.00667107217 0.0
0.720666255912 4.00430769845 0.0
0.740450894784 4.00246780161 0.0
0.76027736978 4.00115266363 0.0
0.780131702711 4.00036321235 0.0
0.799999999998 4.0001 0.0
0.819868297285 4.00036321235 0.0
0.839722630216 4.00115266363 0.0
0.859549105212 4.00246780161 0.0
0.879333744085 4.00430769845 0.0
0.89906275418 4.00667107217 0.0
0.918722163621 4.00955624851 0.0
0.938298318157 4.01296122392 0.0
0.957777321244 4.01688358113 0.0
0.977145665218 4.02132060039 0.0
0.996389584817 4.0262691282 0.0
1.01549574 4.03172573401 0.0
1.03445056323 4.03768654322 0.0
1.05324089605 4.04414741762 0.0
1.07185341958 4.05110377808 0.0
1.09027517391 4.0585507802 0.0
1.10849315734 4.06648316882 0.0
1.12649462563 4.07489539439 0.0
1.1442669209 4.08378154222 0.0
1.16179756906 4.0931353746 0.0
1.1790742871 4.10295033813 0.0
1.1960849082 4.11321952024 0.0
1.21281755802 4.12393575334 0.0
1.22926039879 4.13509145532 0.0
1.24540200269 4.14667887342 0.0
1.26123091585 4.15868978512 0.0
1.27673615785 4.17111585877 0.0
1.29190671097 4.18394826442 0.0
1.30673206073 4.19717810803 0.0
1.32120167579 4.21079599189 0.0
1.33530551541 4.22479246611 0.0
1.34903357612 4.23915760374 0.0
1.36237630898 4.25388141198 0.0
1.3753242847 4.26895348652 0.0
1.38786845609 4.28436329506 0.0
1.05632730172 4.43535283906 0.0
0.549964048968 4.4381053958 0.0
0.806135520676 4.28696690218 0.0
0.60389578305 4.23589310371 0.0
1.22984770884 4.35828704125 0.0
0.3703382852 4.35933552752 0.0
0.995322815839 4.23075031136 0.0
0.728315816804 4.1516935937 0.0
0.872128173905 4.14798724072 0.0
1.14059401893 4.24808468684 0.0
0.461553191009 4.24691671009 0.0
0.784706775856 4.54331390922 0.0
0.398287125272 4.55455970538 0.0
1.20625306554 4.55844743514 0.0
0.624100842742 4.1340824436 0.0
0.5257453845 4.16321776279 0.0
0.978502430793 4.12998737058 0.0
1.07419209812 4.16335154482 0.0
0.364313698077 4.26187035763 0.0
1.23509538257 4.26191716733 0.0
0.68124123937 4.36794548972 0.0
1.31679378691 4.32522066749 0.0
0.283206213094 4.32522066749 0.0
0.791498533126 4.08977141721 0.0
0.931481076052 4.3552344917 0.0
0.96671906557 4.60288042839 0.0
0.684451667517 4.08578036752 0.0
0.618335406951 4.60196910993 0.0
0.450982331762 4.17196171732 0.0
0.915674266355 4.08505633851 0.0
1.14900051594 4.17199012964 0.0
1.30193709687 4.4232448133 0.0
0.29857466761 4.42326296922 0.0
1.05734787542 4.32500107617 0.0
0.539273225177 4.32762599628 0.0
0.709896798149 4.25231026287 0.0
0.895708916005 4.24434194389 0.0
0.813273511364 4.41345766235 0.0
0.559289631452 4.10740879113 0.0
1.04001407307 4.10791539633 0.0
0.801161810585 4.20656244955 0.0
0.665113819616 4.49566650186 0.0
0.852577362173 4.06621846388 0.0
0.39025672787 4.1993806298 0.0
1.20974450479 4.19938104599 0.0
0.921542541183 4.50288058719 0.0
1.14030889032 4.33947344809 0.0
1.15600477272 4.44318538305 0.0
0.435243219029 4.4501581257 0.0
0.462045157798 4.34164654286 0.0
0.735806812738 4.05982269746 0.0
1.30082934537 4.27303772796 0.0
0.299170654625 4.27303772796 0.0
0.533651712118 4.23775983853 0.0
0.666130919144 4.19162131559 0.0
1.0676097303 4.23689469382 0.0
1.08054433577 4.56040946155 0.0
0.506773767255 4.54078295079 0.0
0.626745312844 4.07634420826 0.0
0.933845304214 4.1857954732 0.0
0.293717639664 4.52685000185 0.0
0.31250502208 4.63936411351 0.0
1.3058164124 4.52664930624 0.0
1.29054387065 4.63812765963 0.0
0.973467966326 4.07451619478 0.0
0.487935413164 4.12597084015 0.0
0.461549079751 4.66346834982 0.0
1.11203248746 4.12603503889 0.0
1.14453515393 4.68127370303 0.0
0.840217564202 4.66401146633 0.0
0.585347033288 4.18049048534 0.0
0.619177396637 4.31737576306 0.0
0.331644410315 4.22472190462 0.0
1.26835558968 4.22472190462 0.0
1.01536156978 4.17497473052 0.0
0.809331033562 4.04575709122 0.0
0.982321540791 4.30947358971 0.0
0.725600576914 4.64509651799 0.0
0.812291456186 4.14152942492 0.0
0.335887692543 4.31428235669 0.0
1.26344844681 4.31527131907 0.0
1.23449730504 4.46967441524 0.0
1.34334172096 4.38049551957 0.0
0.256658279045 4.38049551957 0.0
0.741646926828 4.31797908527 0.0
0.674799084703 4.14183768522 0.0
1.18647435526 4.28465189749 0.0
0.360563250284 4.47106479569 0.0
0.873716483853 4.31355499203 0.0
0.418704489949 4.28656264283 0.0
0.492670911224 4.20441614809 0.0
0.403480880356 4.16556776931 0.0
1.19651541215 4.1655686246 0.0
0.728649253738 4.43724546491 0.0
1.00883674467 4.37684664879 0.0
1.11035034557 4.20671841276 0.0
0.261968539765 4.2881079512 0.0
1.33803146023 4.2881079512 0.0
0.74649980488 4.1069354354 0.0
0.927597725248 4.1328597079 0.0
0.892956618256 4.05129338913 0.0
0.659794281787 4.05461387326 0.0
0.587663534405 4.06996537006 0.0
0.942353209926 4.05445300973 0.0
1.01493747319 4.06986013719 0.0
0.613130017774 4.38879803882 0.0
0.449373501074 4.12887191978 0.0
0.514840228377 4.09735850006 0.0
0.497057592 4.38843092106 0.0
1.15061382426 4.12889293084 0.0
1.08514419473 4.09738328152 0.0
0.745617635771 4.20608957592 0.0
0.875234522129 4.57363036549 0.0
0.855262884783 4.2009970831 0.0
1.01126200032 4.50790064162 0.0
1.09391916408 4.38142408872 0.0
1.04436265455 4.68992000827 0.0
0.314320181089 4.36283968607 0.0
1.28649331902 4.36253720145 0.0
0.771211579291 4.03826862024 0.0
0.432259099658 4.21516002157 0.0
0.698583889427 4.04654353526 0.0
1.16802128371 4.213962881 0.0
1.09587629216 4.2837676659 0.0
1.35920470355 4.33176960471 0.0
0.240795296449 4.33176960471 0.0
0.504003580654 4.28325758118 0.0
0.579942709371 4.5093075073 0.0
0.875915224914 4.10325792528 0.0
0.426503136644 4.38227733008 0.0
0.57541416445 4.27875301522 0.0
0.683877978289 4.30671848113 0.0
0.888061695889 4.42143509246 0.0
1.33987712478 4.47369249103 0.0
0.26012287522 4.47369249103 0.0
0.801393572636 4.34570096582 0.0
0.558460082533 4.70006728209 0.0
1.1741923373 4.38642830101 0.0
0.83220012886 4.10289415912 0.0
1.02815069622 4.27563276509 0.0
0.948308583502 4.2631204454 0.0
0.846588933095 4.48344596945 0.0
1.25632767671 4.40990360053 0.0
0.343666800815 4.40995820652 0.0
0.97849585731 4.44541535602 0.0
1.10170977548 4.49017265998 0.0
0.662193131828 4.24319398492 0.0
0.400503668388 4.24391657105 0.0
1.20117145985 4.23640427377 0.0
0.350957892513 4.19306558019 0.0
1.24904210749 4.19306558019 0.0
0.771964652188 4.16415379403 0.0
0.932165148285 4.70246281402 0.0
0.373672364094 4.70831357765 0.0
0.760245937722 4.25919350779 0.0
0.848718469252 4.03277763075 0.0
1.23385612561 4.7109294747 0.0
0.846421485813 4.25575918421 0.0
0.651597058631 4.10553284014 0.0
0.650489852551 4.69648045504 0.0
0.58457834847 4.13885088261 0.0
0.48701309933 4.16369927013 0.0
0.708495738406 4.56366947756 0.0
1.11203398596 4.16388062515 0.0
0.54865558244 4.07760047869 0.0
1.05126102377 4.07744629471 0.0
0.300013757486 4.23769646442 0.0
1.29998624251 4.23769646442 0.0
0.9465032388 4.10228070354 0.0
0.708587583337 4.11656095907 0.0
0.973348904468 4.17047871864 0.0
0.628721855632 4.17048356945 0.0
0.380175010019 4.31531880077 0.0
0.662092932411 4.43409041267 0.0
1.05133526787 4.19731992007 0.0
0.528087045766 4.61837882187 0.0
1.22233124543 4.31031693908 0.0
1.19001193434 4.33783586668 0.0
0.853024099244 4.37054003492 0.0
0.542800296246 4.19834366905 0.0
0.247706318737 4.42749119247 0.0
1.35229368126 4.42749119247 0.0
0.599153768578 4.10463797005 0.0
1.01616570494 4.13737683178 0.0
0.744705786938 4.38079544575 0.0
1.31929001115 4.71212550052 0.0
0.777615355331 4.12623602511 0.0
0.265621610877 4.58485488866 0.0
1.33132411895 4.58141378639 0.0
0.532023338888 4.12884454388 0.0
1.0697792195 4.12751429251 0.0
0.286371037106 4.70520312914 0.0
0.497725885905 4.47663668256 0.0
0.46053455822 4.29097947599 0.0
0.433799237968 4.52139400991 0.0
0.388624781906 4.62604200004 0.0
0.554823673752 4.37961940232 0.0
1.1421595646 4.29328301431 0.0
1.14760043966 4.59165103139 0.0
1.21258698805 4.62830200685 0.0
1.16279096046 4.50802621409 0.0
0.995762647814 4.10018772517 0.0
0.456229040627 4.58966685246 0.0
0.707289391156 4.19030271873 0.0
0.763036833302 4.71795445535 0.0
[...]
POINT_DATA 999
VECTORS Displacement float
-0.000213484473314 -0.022292216486 0
0.000208530160107 -0.0222955972059 0
0.0 -0.0225 0
0.0 -0.0225 0
0.000219692447924 -0.0222945152585 0
0.000230609106097 -0.0222928460949 0
0.000240344114924 -0.0222906355458 0
0.00024832718623 -0.0222888407842 0
0.000252449290392 -0.0222880736468 0
0.000254125952351 -0.0222889523152 0
0.000249729474621 -0.0222920551999 0
0.000238596115354 -0.0222980772853 0
0.000219631390727 -0.0223097238813 0
0.000189605310997 -0.0223288378611 0
0.000147278426088 -0.022359807921 0
8.77999291685e-05 -0.0224097506124 0
0.0 -0.0225 0
0.0 -0.0225 0
0.0 -0.0225 0
0.0 -0.0225 0
0.0 -0.0225 0
0.0 -0.0225 0
0.0 -0.0225 0
0.0 -0.0225 0
0.0 -0.0225 0
0.0 -0.0225 0
0.0 -0.0225 0
0.0 -0.0225 0
0.0 -0.0225 0
0.0 -0.0225 0
0.0 -0.0225 0
0.0 -0.0225 0
0.0 -0.0225 0
-8.78811096275e-05 -0.0224094343003 0
-0.000147863625812 -0.0223590574941 0
-0.000192355904552 -0.0223273404705 0
-0.000221928148011 -0.0223074698602 0
-0.000241129758916 -0.0222954252448 0
-0.000252775504144 -0.0222891559653 0
-0.000257560866758 -0.0222859592246 0
-0.000256198452846 -0.0222849756805 0
-0.000252363004026 -0.022285649697 0
-0.00024464489768 -0.0222873651442 0
-0.000235156205107 -0.0222895184754 0
-0.000224459937914 -0.0222911512242 0
-0.000204470696147 -0.0222866565326 0
-0.00019453935593 -0.0222806407219 0
-0.000183719753753 -0.0222736714583 0
-0.000171832851623 -0.0222657185954 0
-0.000158990789631 -0.0222564519268 0
-0.000145510835722 -0.022245635669 0
-0.000131311489387 -0.0222334789407 0
-0.00011591406736 -0.0222198148438 0
-9.96609656602e-05 -0.0222037656844 0
-8.31602326649e-05 -0.0221865161168 0
-6.5796294771e-05 -0.022167046292 0
-4.73307499962e-05 -0.0221454731349 0
-2.85777856341e-05 -0.0221212461552 0
-9.0017372108e-06 -0.0220946809351 0
1.11620197521e-05 -0.0220654444216 0
3.20978452332e-05 -0.0220330949394 0
5.3253462289e-05 -0.0219973576068 0
7.56637734395e-05 -0.0219581856061 0
9.80629282541e-05 -0.021914721005 0
0.000121657141031 -0.0218664639874 0
0.000144835503822 -0.0218131259458 0
0.000170061852488 -0.0217538384394 0
0.000194418188417 -0.0216869119029 0
0.000220727711087 -0.0216117903427 0
0.000246786366051 -0.0215262611642 0
0.000276686482024 -0.0214254670564 0
0.000302865383509 -0.0213066864403 0
0.000332509182172 -0.0211541001277 0
0.000352144881456 -0.0209438280252 0
0.000353099231448 -0.0206910140789 0
0.000320170772702 -0.0204827702809 0
0.000256312682918 -0.0203160275849 0
0.000181203022136 -0.0201972561105 0
9.57472726247e-05 -0.0201277405176 0
-8.39803671037e-06 -0.0200990870221 0
-0.000104280919564 -0.020126150155 0
-0.000194189178356 -0.0201993771876 0
-0.000271302929996 -0.0203165138529 0
-0.000331037213174 -0.0204821749165 0
-0.000363098521848 -0.0206904873117 0
-0.00036897954043 -0.0209469482784 0
-0.000337946564284 -0.0211601266994 0
-0.000312471408335 -0.0213090397712 0
-0.000285195826498 -0.021427981732 0
-0.00025504688767 -0.0215284252821 0
-0.000228963030441 -0.021613977108 0
-0.000202443751819 -0.0216891073261 0
-0.000177842566509 -0.0217556884138 0
-0.000152662126454 -0.021814835665 0
-0.000129411392221 -0.0218682537131 0
-0.000105756228692 -0.0219166080208 0
-8.32342195333e-05 -0.0219601947079 0
-6.06665752485e-05 -0.021999482969 0
-3.93463893637e-05 -0.0220353113977 0
-1.82518168893e-05 -0.0220677399841 0
2.064937901e-06 -0.022097049158 0
2.17864483851e-05 -0.0221236873915 0
4.06824006917e-05 -0.0221479925285 0
5.92926829086e-05 -0.0221696488328 0
7.68069441097e-05 -0.0221892015358 0
9.34626716144e-05 -0.0222065302666 0
0.00010986482385 -0.0222226477326 0
0.000125404785659 -0.0222363725047 0
0.000139741089742 -0.0222485894052 0
0.000153358629567 -0.0222594676771 0
0.000166334745267 -0.0222687964681 0
0.000178355439144 -0.0222768153955 0
0.000189309660395 -0.0222838546447 0
0.000199376121758 -0.0222899474703 0
0.000199874313091 -0.0220542849801 0
-0.000199511360426 -0.0220497554494 0
5.21573999377e-06 -0.0214578051515 0
-0.000184217856472 -0.0216640025171 0
0.000235318378709 -0.0221853781569 0
-0.000239521288771 -0.0221834854224 0
0.000176929894386 -0.0216552270792 0
-9.92833999374e-05 -0.0210542243046 0
9.05476858625e-05 -0.0210433302594 0
0.000183677347365 -0.0220170835272 0
-0.000188499141994 -0.0220104017188 0
-1.25541013571e-05 -0.022088615145 0
-0.000202258240441 -0.0222915359259 0
0.000198834172616 -0.0222980114191 0
-0.000107471310582 -0.0214605305261 0
-0.00011188386884 -0.0218310451254 0
9.21950435508e-05 -0.0214706037695 0
0.000105634846378 -0.021832695421 0
-0.000192004920887 -0.022161721246 0
0.000186667709705 -0.0221633661603 0
-0.000130943869041 -0.0217672600213 0
0.000223366994726 -0.0222483558483 0
-0.000228008136075 -0.0222456269071 0
-1.17837090272e-05 -0.0206129041678 0
0.000140155016708 -0.0217564377973 0
9.69636705773e-05 -0.0222342017131 0
-4.97681229036e-05 -0.0210531508565 0
-0.000106588821296 -0.0222383303904 0
-0.000106983515897 -0.0220110202313 0
4.02974119086e-05 -0.0210543122284 0
0.000100673921978 -0.0220131455459 0
0.000248894899108 -0.0222608777125 0
-0.000252435123135 -0.0222584258823 0
0.000210525332463 -0.0219183915339 0
-0.000215734895996 -0.0219259049265 0
-0.000120286712475 -0.0214335540261 0
0.000121196635268 -0.0214229583693 0
1.30489248577e-05 -0.0218078414224 0
-2.13206203031e-05 -0.0217120372384 0
1.49362062274e-05 -0.0217110633202 0
-1.97260078194e-06 -0.0211723973208 0
-0.000114389863261 -0.0220380482698 0
2.41930614535e-06 -0.0205975428691 0
-0.00013509423037 -0.022119096958 0
0.000129061997948 -0.0221215000954 0
0.000100044213527 -0.022043677063 0
0.000225754877068 -0.0220680865822 0
0.00022829184126 -0.0221682532621 0
-0.000232548451051 -0.0221802234866 0
-0.000229999744961 -0.0220642068522 0
1.05188529808e-06 -0.0206236117274 0
0.000192557634814 -0.0222317441404 0
-0.000197746752032 -0.0222289855359 0
-0.000188631966066 -0.0218509795709 0
-0.000152637314038 -0.0213890845207 0
0.000182248088267 -0.021855426651 0
0.000164374508671 -0.0222330335157 0
-0.000180026555228 -0.0222166762864 0
2.06502874659e-05 -0.0214070663593 0
0.000144259473377 -0.0213774012436 0
-0.000233096898548 -0.0223040387494 0
-0.000160384464735 -0.0223749809668 0
0.000230770469492 -0.0223057831048 0
0.00016084737 -0.0223751022994 0
-3.52354572109e-05 -0.0214093600135 0
-3.80918195341e-05 -0.0219247646715 0
-0.00011863325086 -0.0223702546342 0
3.11576046287e-05 -0.0219267210832 0
0.000105929919442 -0.0223901931694 0
1.86927546947e-05 -0.0223039742759 0
-0.00015128891207 -0.0216554443156 0
-0.000185546445119 -0.0217621408336 0
-0.000158625287893 -0.0221951368856 0
0.00015294198501 -0.0221978075917 0
0.000138550766211 -0.0216540644945 0
-1.26994843084e-05 -0.0203554030047 0
0.000181713765957 -0.0217528101409 0
-3.90845616061e-05 -0.0222770861752 0
1.37371216665e-05 -0.0208896189388 0
-0.000223631938651 -0.0222020763711 0
0.000219370516224 -0.0222041145651 0
0.000237376090402 -0.0222475062037 0
0.000244211790257 -0.022269746731 0
-0.000248314375683 -0.0222670175945 0
-7.53494595417e-05 -0.021578741095 0
-0.000124923837775 -0.0212389518834 0
0.00020484805678 -0.0221053498495 0
-0.000241305285632 -0.0222494246624 0
8.9770459771e-05 -0.0215826447237 0
-0.000211269184138 -0.0220966768975 0
-0.000155296558958 -0.0219295354929 0
-9.2757311023e-05 -0.0220962727483 0
8.63632246647e-05 -0.0220985808233 0
-7.22757438416e-05 -0.0218827838797 0
0.000189018701322 -0.0219085272831 0
0.000151102753973 -0.0219390960105 0
-0.00020713514398 -0.0222575064258 0
0.000202080003288 -0.0222604495693 0
-6.06323522464e-05 -0.0208033472488 0
0.000110690057627 -0.0212312342829 0
-4.76774725039e-05 -0.0207876642518 0
6.90796867418e-05 -0.0211834079999 0
7.08880446044e-05 -0.0215985559653 0
-8.15184330484e-05 -0.0212011579393 0
-7.9983269228e-05 -0.0216116798628 0
-0.000177912811235 -0.0218964501577 0
-3.78224910885e-05 -0.0220112888294 0
1.78240286831e-05 -0.0218530613098 0
-0.000226517787145 -0.0220561254583 0
3.09598892213e-05 -0.0220134280179 0
-2.54145193916e-05 -0.0218547952761 0
-8.11905079751e-05 -0.0212181956465 0
5.15854710338e-05 -0.0221547032856 0
7.69665170123e-05 -0.0212019036782 0
0.000155016712549 -0.0221149056446 0
0.000220521817097 -0.0220381953444 0
8.1410299908e-05 -0.0223772730716 0
-0.000242194775689 -0.022231267129 0
0.000237937275682 -0.0222341751826 0
3.06305166093e-05 -0.0203504735666 0
-0.000156711430102 -0.0220537976224 0
6.41928804304e-05 -0.0208423805891 0
0.000149375799891 -0.0220561403273 0
0.000205759868454 -0.0219514381772 0
0.00022631471116 -0.0222737214807 0
-0.00023094135605 -0.0222707216858 0
-0.000210892790928 -0.0219497510897 0
-0.000161162259606 -0.0221233557045 0
6.66637107323e-05 -0.0208815068911 0
-0.000239214091321 -0.022137530552 0
-0.000201484656017 -0.0217944070358 0
-0.000139305221786 -0.0216230334747 0
8.86579443718e-05 -0.0218577820321 0
0.000248700261634 -0.022288728411 0
-0.000251990086664 -0.0222863165411 0
-1.54038818764e-07 -0.0216316094913 0
-7.47681785079e-05 -0.0223879188014 0
0.000235286256896 -0.02214325839 0
3.13559163932e-05 -0.0207198521377 0
0.000196387247266 -0.0217999811455 0
0.000162586507937 -0.0215888517956 0
4.15152284718e-05 -0.0219723187003 0
0.000244853251312 -0.0222292331922 0
-0.000248476533447 -0.022227218549 0
0.000155439302588 -0.0219852149707 0
0.000200684925754 -0.0221656641159 0
-0.000161450800895 -0.0215190286895 0
-0.000180097595188 -0.0221104481142 0
0.000167853578644 -0.0221136942043 0
-0.000125911247777 -0.0221717963009 0
0.000119896926178 -0.0221743951121 0
-4.5273141294e-05 -0.021008265124 0
4.45156930883e-05 -0.0223728992236 0
-9.16826815458e-05 -0.0224265033136 0
-5.84274742439e-05 -0.0213846567892 0
-8.34878569435e-05 -0.0204004804333 0
8.88755336551e-05 -0.0224296824594 0
6.17682327474e-05 -0.0213807142393 0
-7.30616657067e-05 -0.0212885251688 0
-5.28384145026e-05 -0.0223673660819 0
-9.66723002986e-05 -0.0216278918093 0
-0.000102321061603 -0.0219312256866 0
-6.56106030047e-05 -0.022141752932 0
9.62285536826e-05 -0.0219312193128 0
6.23716930448e-05 -0.0217478297185 0
-7.03892769312e-05 -0.0217493067754 0
-0.000170069165566 -0.022227065396 0
0.000164534146862 -0.0222298743809 0
5.85685032458e-05 -0.0212772954725 0
-9.3238783642e-05 -0.0210049630102 0
0.000141860143436 -0.0214968732808 0
-0.000148817773536 -0.0214876382861 0
-0.00022448787807 -0.0221566269634 0
-0.000131525976189 -0.0219242756185 0
0.000153013948744 -0.0217843157866 0
-0.000132875517033 -0.0222980163409 0
0.000217500254891 -0.0221599188897 0
0.000227908854569 -0.0221327725823 0
5.94469775861e-05 -0.021714904521 0
-0.000158942317833 -0.0217997631536 0
-0.000255654556803 -0.0222774143434 0
0.000251990053902 -0.0222800405858 0
-3.72348064173e-05 -0.0215532633519 0
8.69153446436e-05 -0.0216320978751 0
-6.40634084251e-05 -0.0217414805352 0
9.47648021877e-05 -0.0224277500956 0
-3.34522790578e-05 -0.0208222228114 0
-0.00020795301523 -0.0223342208176 0
0.000207500980361 -0.022334128549 0
-5.62020436357e-05 -0.021804912769 0
4.57578070323e-05 -0.021811699855 0
-0.000101138651656 -0.0224227935985 0
-0.000208195587619 -0.0221498546988 0
-0.000214309141691 -0.0220336711136 0
-0.00021027013919 -0.0222440894532 0
-0.000158850770812 -0.0223552221618 0
-0.000208734439417 -0.0219651494392 0
0.000210471376396 -0.0220413066652 0
0.000167524570736 -0.0223024985375 0
0.00015610457952 -0.0223581712078 0
0.000212320728988 -0.022230739892 0
2.16721077717e-05 -0.0215310498006 0
-0.000169150727177 -0.0222980286291 0
-0.000125160009207 -0.0212539974907 0
-1.18564703703e-05 -0.0223870143268 0
-1.60179777438e-05 -0.0219448038256 0
0.000141755104006 -0.0216418632342 0
-5.06023537022e-05 -0.0220669582302 0
0.000117328696697 -0.021239131181 0
4.3886872408e-05 -0.022069229659 0
0.0002436216779 -0.0222742909854 0
8.49912410784e-05 -0.0205178357618 0
-0.000188276070663 -0.0222004572538 0
0.000182931239201 -0.0222030778444 0
-9.76021026704e-05 -0.0221422151622 0
9.13003683248e-05 -0.0221447009366 0
-0.000165121908733 -0.0220085562229 0
-0.000234366223576 -0.022131791341 0
-1.28515979499e-05 -0.0205423753231 0
-7.26991789613e-05 -0.0220420228168 0
-0.000163085375064 -0.022156081851 0
0.000157421063278 -0.0221584776011 0
-0.000246779534108 -0.0222702040081 0
0.000239713453303 -0.0222020193135 0
0.000161638282169 -0.0215153876084 0
-0.000187413305086 -0.0222500151439 0
0.000182087786736 -0.0222529456463 0
0.00011975631558 -0.0223252328532 0
-0.000242180450762 -0.0221990463995 0
-0.000217795445076 -0.0222733400498 0
0.000212913949447 -0.0222764292994 0
0.00011374524518 -0.0214347944212 0
5.53870401827e-05 -0.0210643776047 0
-0.000201692459612 -0.0223284012863 0
0.000199112951348 -0.022329866577 0
-0.000186144972557 -0.0219368341044 0
-4.74668322806e-05 -0.0208575113606 0
1.51185581183e-06 -0.0212899451979 0
4.69710887905e-06 -0.0205412127334 0
0.000219457336852 -0.021999595541 0
0.00018125610595 -0.0219413097612 0
-0.000179982578202 -0.0216603225596 0
-0.000128996887221 -0.020949349389 0
-0.000115328189995 -0.0214365006185 0
0.000217836303871 -0.0221193020735 0
-0.000219911704867 -0.0222282063797 0
0.000215136756357 -0.0222307979396 0
0.000104401380963 -0.0221350840407 0
-0.000224059085745 -0.0220000365835 0
-0.000184247284268 -0.0217325791612 0
9.52105964942e-05 -0.0217315259873 0
-0.000116161970602 -0.0221347346136 0
-1.1567188355e-05 -0.0222322327215 0
4.28118959459e-06 -0.0219493827408 0
-1.14803619872e-05 -0.0219513716884 0
-0.000152232079777 -0.02199774277 0
0.000141446582764 -0.0220006486052 0
-0.00024199926528 -0.0223014815409 0
0.000239347576401 -0.0223036484349 0
-0.00017263389914 -0.021570126403 0
0.000178653878695 -0.021748852002 0
-0.000111444899528 -0.0217423841419 0
0.000132658475842 -0.0222214026194 0
-0.000109667137839 -0.0205622655248 0
0.000134892604096 -0.0218807517245 0
0.000237455724618 -0.0222789776482 0
-0.000241819374792 -0.0222759687545 0
-0.000115094360235 -0.0220630125871 0
2.59490739122e-05 -0.0208044075171 0
0.000108857694079 -0.0220652209522 0
-0.000143499729208 -0.0213884664484 0
5.59136582573e-05 -0.0222684848808 0
6.15045378326e-05 -0.0224329052241 0
0.000207669099545 -0.0219694407636 0
-0.000202890906227 -0.0218681729496 0
0.00023813196963 -0.0222526689562 0
-0.00024238350286 -0.0222500845709 0
0.000222985237385 -0.0222881297216 0
-0.000226418836843 -0.0222847995127 0
8.80840831793e-05 -0.0210681929569 0
0.000189028227962 -0.0220722068288 0
0.000149559851967 -0.021027700565 0
8.92681280736e-06 -0.0202337838484 0
5.51367513388e-05 -0.0208969622477 0
-0.000232781687067 -0.0221236758354 0
-0.000192470038756 -0.022079024747 0
-0.000134025262751 -0.0221986804495 0
0.000128113706427 -0.0222013946649 0
4.05815362575e-05 -0.0215811297661 0
0.000136221055044 -0.0213658244613 0
-5.67833544468e-05 -0.0202931453484 0
0.000158699038237 -0.0223753321967 0
-0.000210866640521 -0.022187804476 0
0.000205064092841 -0.0221904307171 0
0.000192591260151 -0.0218316819716 0
-0.000173321896414 -0.0223638429721 0
-5.82798051247e-05 -0.0224368145033 0
0.000229806110343 -0.0220916375463 0
-0.000145731875387 -0.0222333347145 0
-0.00013132701299 -0.0213807097059 0
0.000172945798004 -0.0218058073453 0
0.000199526105324 -0.0218749398619 0
0.000158029228545 -0.0215931306843 0
0.000184574456546 -0.0216984600934 0
-0.000165246001912 -0.0217978965111 0
-0.0002285178701 -0.0222328790765 0
-1.14016888844e-05 -0.0212558212952 0
-5.25489627868e-05 -0.0214503086595 0
-0.000231961791376 -0.0222258903497 0
0.000227371449151 -0.0222291229069 0
-0.000149376870715 -0.0222183769849 0
0.000143620462394 -0.022221172272 0
0.000116715792012 -0.0211740277168 0
0.000194444100819 -0.0221343734989 0
0.000184195097015 -0.0221233654393 0
0.00012432033051 -0.021381471883 0
-0.000206144884725 -0.0218757871769 0
-9.11536152774e-05 -0.0214692647514 0
-0.000211251283914 -0.0221401807781 0
-0.000220493682646 -0.0222605618864 0
0.000215667457258 -0.022263486929 0
1.91643454252e-05 -0.0223998032657 0
-7.37250389007e-05 -0.0218676444392 0
-6.72897681065e-05 -0.0219657758581 0
-0.000233283538299 -0.0220891082299 0
9.68574964829e-05 -0.0214720633816 0
-2.52302702995e-06 -0.0212640273202 0
-0.000217734639723 -0.022092341817 0
0.00014009959015 -0.0218607493105 0
6.16255217889e-05 -0.0224461743288 0
0.000111073741783 -0.0216974455354 0
6.11231682284e-05 -0.0219679966925 0
-6.68853639682e-05 -0.022257423053 0
-6.56986200943e-05 -0.0208978647725 0
7.18425661101e-05 -0.0218741548201 0
-4.30891595816e-05 -0.0212699475372 0
7.61905956498e-05 -0.0218167452015 0
-0.000122437313996 -0.0217017126846 0
-0.000142921998766 -0.0218614447461 0
-8.39238343707e-05 -0.0218184485297 0
7.29629499484e-07 -0.0207498518078 0
4.26009940441e-05 -0.0212656051583 0
-2.04132892375e-06 -0.0204230191574 0
0.000248938044605 -0.0222800838963 0
-0.000252885497812 -0.0222772369847 0
0.000151059300836 -0.0215420037397 0
0.000170650529665 -0.0213396302178 0
-2.20087791389e-05 -0.0224237985871 0
-0.000175688067597 -0.0213384300078 0
-0.000157192707963 -0.021547648398 0
4.3490897877e-05 -0.0219199928357 0
8.05398215037e-06 -0.0219956880051 0
-0.00012517972438 -0.0211890720435 0
-5.09680142984e-05 -0.0219218885095 0
-1.52205737813e-05 -0.0219977977478 0
0.000231608420692 -0.0222168035642 0
0.00010955990487 -0.0222929052325 0
-2.84213381818e-05 -0.0215532100256 0
0.000112689620687 -0.0203424821221 0
-2.55214068924e-05 -0.0209801784028 0
0.000165261546309 -0.0206287772908 0
-9.53061735387e-05 -0.0211464501658 0
0.000225855659067 -0.0221836913853 0
0.000237262569053 -0.0222665755041 0
-0.000241604884082 -0.0222637757763 0
-0.000188350002702 -0.0221185102697 0
-0.000249344897022 -0.0222483066337 0
0.000245413441676 -0.0222507044615 0
2.91074333873e-05 -0.0220772579421 0
-0.00017259588454 -0.0216529002321 0
3.94125514179e-05 -0.0224239622185 0
-1.65734604033e-05 -0.0204625618595 0
9.56915159192e-05 -0.0217014780703 0
-6.29568638581e-05 -0.0221171836683 0
5.63741420786e-05 -0.0221195992911 0
-0.00023679814753 -0.0222066012897 0
0.000137963477404 -0.021543756659 0
-3.81075907074e-06 -0.0216368600474 0
-0.00012965613715 -0.0215496922333 0
0.000186836205169 -0.0222488910753 0
-8.27474533199e-05 -0.0211058668805 0
-0.000147127077433 -0.0215409880533 0
1.93894947749e-05 -0.021025858168 0
5.8647375859e-06 -0.0210214935708 0
-0.000243743582417 -0.0221823566282 0
-9.99921673907e-05 -0.0218091445851 0
4.30113410553e-05 -0.020748555124 0
-3.44282249573e-05 -0.021830729599 0
-0.00011449730277 -0.0216669140183 0
1.0606717449e-05 -0.0217791592071 0
-8.16984101863e-05 -0.0220556514547 0
7.52011445168e-05 -0.0220578769 0
-1.82935633051e-05 -0.0217808110289 0
4.77510427843e-05 -0.0214814304349 0
-3.72671038801e-05 -0.0206805383875 0
2.43810419397e-05 -0.0216766224055 0
0.000246346327731 -0.0222525476196 0
-0.000249717612895 -0.0222492815837 0
-5.64202200033e-05 -0.0224502359734 0
0.000117912501393 -0.0215613850648 0
0.000239743936018 -0.0221830329634 0
-3.20086703832e-05 -0.0206571812492 0
-0.000169999349859 -0.0207496651189 0
-0.0002159813399 -0.0222452208107 0
0.000211066746117 -0.0222480158976 0
-0.000197579896595 -0.0222682562623 0
0.000192387976035 -0.0222713305587 0
-1.29910831985e-05 -0.0206563241357 0
-0.000226630531517 -0.0220991523161 0
9.69131631105e-06 -0.021518226987 0
0.000220932135038 -0.0222674245342 0
0.000163162981902 -0.0217060005205 0
3.31663945498e-05 -0.0213993611126 0
0.000232420505184 -0.0222091050932 0
-0.000224473951074 -0.022279892769 0
0.000219713636985 -0.0222830592643 0
6.39628673337e-05 -0.0220522273843 0
0.0001811680322 -0.0219826947724 0
-2.97161682847e-05 -0.0218641835025 0
-0.00020560674689 -0.0222109110511 0
0.000200533598233 -0.02221348978 0
-0.000158071338824 -0.0220958059895 0
-4.26290928884e-05 -0.021126627288 0
0.00014975418569 -0.0220997934698 0
0.000151428693977 -0.021491434879 0
3.55180674636e-05 -0.020466313272 0
-0.000221711404821 -0.0219908446336 0
2.30499121277e-05 -0.021867516608 0
-0.000117610002244 -0.0220962099312 0
0.000111391582737 -0.0220984569472 0
0.00013684678514 -0.0220646277397 0
-0.000171557379505 -0.0219735894224 0
-5.84035157573e-05 -0.0224566217046 0