# vtk DataFile Version 2.0
Generated with Solid Solver
ASCII
DATASET UNSTRUCTURED_GRID
POINTS 999 float 
0.2 4.3001 0.0
1.4 4.3001 0.0
1.4 4.8001 0.0
0.2 4.8001 0.0
1.4 4.32033264049 0.0
1.4 4.34261203886 0.0
1.4 4.36714525371 0.0
1.4 4.3941602782 0.0
1.4 4.42390817466 0.0
1.4 4.45666541084 0.0
1.4 4.49273640748 0.0
1.4 4.5324564007 0.0
1.4 4.57619451608 0.0
1.4 4.62435723872 0.0
1.4 4.67739217343 0.0
1.4 4.73579218095 0.0
1.33333333333 4.8001 0.0
1.26666666667 4.8001 0.0
1.2 4.8001 0.0
1.13333333333 4.8001 0.0
1.06666666667 4.8001 0.0
1.0 4.8001 0.0
0.933333333334 4.8001 0.0
0.866666666668 4.8001 0.0
0.800000000001 4.8001 0.0
0.733333333334 4.8001 0.0
0.666666666668 4.8001 0.0
0.600000000001 4.8001 0.0
0.533333333334 4.8001 0.0
0.466666666667 4.8001 0.0
0.4 4.8001 0.0
0.333333333334 4.8001 0.0
0.266666666667 4.8001 0.0
0.2 4.73579218095 0.0
0.2 4.67739217343 0.0
0.2 4.62435723872 0.0
0.2 4.57619451608 0.0
0.2 4.5324564007 0.0
0.2 4.49273640748 0.0
0.2 4.45666541084 0.0
0.2 4.42390817466 0.0
0.2 4.3941602782 0.0
0.2 4.36714525371 0.0
0.2 4.34261203886 0.0
0.2 4.32033264049 0.0
0.212131543907 4.28436329506 0.0
0.224675715302 4.26895348652 0.0
0.23762369102 4.25388141198 0.0
0.250966423879 4.23915760374 0.0
0.264694484585 4.22479246611 0.0
0.278798324214 4.21079599189 0.0
0.293267939266 4.19717810803 0.0
0.308093289028 4.18394826442 0.0
0.323263842145 4.17111585877 0.0
0.338769084145 4.15868978512 0.0
0.354597997314 4.14667887342 0.0
0.37073960121 4.13509145532 0.0
0.387182441982 4.12393575334 0.0
0.403915091795 4.11321952025 0.0
0.420925712897 4.10295033813 0.0
0.438202430937 4.09313537461 0.0
0.455733079095 4.08378154223 0.0
0.473505374364 4.07489539439 0.0
0.491506842655 4.06648316882 0.0
0.509724826085 4.0585507802 0.0
0.528146580414 4.05110377808 0.0
0.546759103951 4.04414741762 0.0
0.56554943677 4.03768654322 0.0
0.584504260001 4.03172573401 0.0
0.60361041518 4.0262691282 0.0
0.622854334779 4.02132060039 0.0
0.642222678753 4.01688358113 0.0
0.661701681839 4.01296122392 0.0
0.681277836375 4.00955624851 0.0
0.700937245817 4.00667107217 0.0
0.720666255912 4.00430769845 0.0
0.740450894784 4.00246780161 0.0
0.76027736978 4.00115266363 0.0
0.780131702711 4.00036321235 0.0
0.799999999998 4.0001 0.0
0.819868297285 4.00036321235 0.0
0.839722630216 4.00115266363 0.0
0.859549105212 4.00246780161 0.0
0.879333744085 4.00430769845 0.0
0.89906275418 4.00667107217 0.0
0.918722163621 4.00955624851 0.0
0.938298318157 4.01296122392 0.0
0.957777321244 4.01688358113 0.0
0.977145665218 4.02132060039 0.0
0.996389584817 4.0262691282 0.0
1.01549574 4.03172573401 0.0
1.03445056323 4.03768654322 0.0
1.05324089605 4.04414741762 0.0
1.07185341958 4.05110377808 0.0
1.09027517391 4.0585507802 0.0
1.10849315734 4.06648316882 0.0
1.12649462563 4.07489539439 0.0
1.1442669209 4.08378154222 0.0
1.16179756906 4.0931353746 0.0
1.1790742871 4.10295033813 0.0
1.1960849082 4.11321952024 0.0
1.21281755802 4.12393575334 0.0
1.22926039879 4.13509145532 0.0
1.24540200269 4.14667887342 0.0
1.26123091585 4.15868978512 0.0
1.27673615785 4.17111585877 0.0
1.29190671097 4.18394826442 0.0
1.30673206073 4.19717810803 0.0
1.32120167579 4.21079599189 0.0
1.33530551541 4.22479246611 0.0
1.34903357612 4.23915760374 0.0
1.36237630898 4.25388141198 0.0
1.3753242847 4.26895348652 0.0
1.38786845609 4.28436329506 0.0
1.05632730172 4.43535283906 0.0
0.549964048968 4.4381053958 0.0
0.806135520676 4.28696690218 0.0
0.60389578305 4.23589310371 0.0
1.22984770884 4.35828704125 0.0
0.3703382852 4.35933552752 0.0
0.995322815839 4.23075031136 0.0
0.728315816804 4.1516935937 0.0
0.872128173905 4.14798724072 0.0
1.14059401893 4.24808468684 0.0
0.461553191009 4.24691671009 0.0
0.784706775856 4.54331390922 0.0
0.398287125272 4.55455970538 0.0
1.20625306554 4.55844743514 0.0
0.624100842742 4.1340824436 0.0
0.5257453845 4.16321776279 0.0
0.978502430793 4.12998737058 0.0
1.07419209812 4.16335154482 0.0
0.364313698077 4.26187035763 0.0
1.23509538257 4.26191716733 0.0
0.68124123937 4.36794548972 0.0
1.31679378691 4.32522066749 0.0
0.283206213094 4.32522066749 0.0
0.791498533126 4.08977141721 0.0
0.931481076052 4.3552344917 0.0
0.96671906557 4.60288042839 0.0
0.684451667517 4.08578036752 0.0
0.618335406951 4.60196910993 0.0
0.450982331762 4.17196171732 0.0
0.915674266355 4.08505633851 0.0
1.14900051594 4.17199012964 0.0
1.30193709687 4.4232448133 0.0
0.29857466761 4.42326296922 0.0
1.05734787542 4.32500107617 0.0
0.539273225177 4.32762599628 0.0
0.709896798149 4.25231026287 0.0
0.895708916005 4.24434194389 0.0
0.813273511364 4.41345766235 0.0
0.559289631452 4.10740879113 0.0
1.04001407307 4.10791539633 0.0
0.801161810585 4.20656244955 0.0
0.665113819616 4.49566650186 0.0
0.852577362173 4.06621846388 0.0
0.39025672787 4.1993806298 0.0
1.20974450479 4.19938104599 0.0
0.921542541183 4.50288058719 0.0
1.14030889032 4.33947344809 0.0
1.15600477272 4.44318538305 0.0
0.435243219029 4.4501581257 0.0
0.462045157798 4.34164654286 0.0
0.735806812738 4.05982269746 0.0
1.30082934537 4.27303772796 0.0
0.299170654625 4.27303772796 0.0
0.533651712118 4.23775983853 0.0
0.666130919144 4.19162131559 0.0
1.0676097303 4.23689469382 0.0
1.08054433577 4.56040946155 0.0
0.506773767255 4.54078295079 0.0
0.626745312844 4.07634420826 0.0
0.933845304214 4.1857954732 0.0
0.293717639664 4.52685000185 0.0
0.31250502208 4.63936411351 0.0
1.3058164124 4.52664930624 0.0
1.29054387065 4.63812765963 0.0
0.973467966326 4.07451619478 0.0
0.487935413164 4.12597084015 0.0
0.461549079751 4.66346834982 0.0
1.11203248746 4.12603503889 0.0
1.14453515393 4.68127370303 0.0
0.840217564202 4.66401146633 0.0
0.585347033288 4.18049048534 0.0
0.619177396637 4.31737576306 0.0
0.331644410315 4.22472190462 0.0
1.26835558968 4.22472190462 0.0
1.01536156978 4.17497473052 0.0
0.809331033562 4.04575709122 0.0
0.982321540791 4.30947358971 0.0
0.725600576914 4.64509651799 0.0
0.812291456186 4.14152942492 0.0
0.335887692543 4.31428235669 0.0
1.26344844681 4.31527131907 0.0
1.23449730504 4.46967441524 0.0
1.34334172096 4.38049551957 0.0
0.256658279045 4.38049551957 0.0
0.741646926828 4.31797908527 0.0
0.674799084703 4.14183768522 0.0
1.18647435526 4.28465189749 0.0
0.360563250284 4.47106479569 0.0
0.873716483853 4.31355499203 0.0
0.418704489949 4.28656264283 0.0
0.492670911224 4.20441614809 0.0
0.403480880356 4.16556776931 0.0
1.19651541215 4.1655686246 0.0
0.728649253738 4.43724546491 0.0
1.00883674467 4.37684664879 0.0
1.11035034557 4.20671841276 0.0
0.261968539765 4.2881079512 0.0
1.33803146023 4.2881079512 0.0
0.74649980488 4.1069354354 0.0
0.927597725248 4.1328597079 0.0
0.892956618256 4.05129338913 0.0
0.659794281787 4.05461387326 0.0
0.587663534405 4.06996537006 0.0
0.942353209926 4.05445300973 0.0
1.01493747319 4.06986013719 0.0
0.613130017774 4.38879803882 0.0
0.449373501074 4.12887191978 0.0
0.514840228377 4.09735850006 0.0
0.497057592 4.38843092106 0.0
1.15061382426 4.12889293084 0.0
1.08514419473 4.09738328152 0.0
0.745617635771 4.20608957592 0.0
0.875234522129 4.57363036549 0.0
0.855262884783 4.2009970831 0.0
1.01126200032 4.50790064162 0.0
1.09391916408 4.38142408872 0.0
1.04436265455 4.68992000827 0.0
0.314320181089 4.36283968607 0.0
1.28649331902 4.36253720145 0.0
0.771211579291 4.03826862024 0.0
0.432259099658 4.21516002157 0.0
0.698583889427 4.04654353526 0.0
1.16802128371 4.213962881 0.0
1.09587629216 4.2837676659 0.0
1.35920470355 4.33176960471 0.0
0.240795296449 4.33176960471 0.0
0.504003580654 4.28325758118 0.0
0.579942709371 4.5093075073 0.0
0.875915224914 4.10325792528 0.0
0.426503136644 4.38227733008 0.0
0.57541416445 4.27875301522 0.0
0.683877978289 4.30671848113 0.0
0.888061695889 4.42143509246 0.0
1.33987712478 4.47369249103 0.0
0.26012287522 4.47369249103 0.0
0.801393572636 4.34570096582 0.0
0.558460082533 4.70006728209 0.0
1.1741923373 4.38642830101 0.0
0.83220012886 4.10289415912 0.0
1.02815069622 4.27563276509 0.0
0.948308583502 4.2631204454 0.0
0.846588933095 4.48344596945 0.0
1.25632767671 4.40990360053 0.0
0.343666800815 4.40995820652 0.0
0.97849585731 4.44541535602 0.0
1.10170977548 4.49017265998 0.0
0.662193131828 4.24319398492 0.0
0.400503668388 4.24391657105 0.0
1.20117145985 4.23640427377 0.0
0.350957892513 4.19306558019 0.0
1.24904210749 4.19306558019 0.0
0.771964652188 4.16415379403 0.0
0.932165148285 4.70246281402 0.0
0.373672364094 4.70831357765 0.0
0.760245937722 4.25919350779 0.0
0.848718469252 4.03277763075 0.0
1.23385612561 4.7109294747 0.0
0.846421485813 4.25575918421 0.0
0.651597058631 4.10553284014 0.0
0.650489852551 4.69648045504 0.0
0.58457834847 4.13885088261 0.0
0.48701309933 4.16369927013 0.0
0.708495738406 4.56366947756 0.0
1.11203398596 4.16388062515 0.0
0.54865558244 4.07760047869 0.0
1.05126102377 4.07744629471 0.0
0.300013757486 4.23769646442 0.0
1.29998624251 4.23769646442 0.0
0.9465032388 4.10228070354 0.0
0.708587583337 4.11656095907 0.0
0.973348904468 4.17047871864 0.0
0.628721855632 4.17048356945 0.0
0.380175010019 4.31531880077 0.0
0.662092932411 4.43409041267 0.0
1.05133526787 4.19731992007 0.0
0.528087045766 4.61837882187 0.0
1.22233124543 4.31031693908 0.0
1.19001193434 4.33783586668 0.0
0.853024099244 4.37054003492 0.0
0.542800296246 4.19834366905 0.0
0.247706318737 4.42749119247 0.0
1.35229368126 4.42749119247 0.0
0.599153768578 4.10463797005 0.0
1.01616570494 4.13737683178 0.0
0.744705786938 4.38079544575 0.0
1.31929001115 4.71212550052 0.0
0.777615355331 4.12623602511 0.0
0.265621610877 4.58485488866 0.0
1.33132411895 4.58141378639 0.0
0.532023338888 4.12884454388 0.0
1.0697792195 4.12751429251 0.0
0.286371037106 4.70520312914 0.0
0.497725885905 4.47663668256 0.0
0.46053455822 4.29097947599 0.0
0.433799237968 4.52139400991 0.0
0.388624781906 4.62604200004 0.0
0.554823673752 4.37961940232 0.0
1.1421595646 4.29328301431 0.0
1.14760043966 4.59165103139 0.0
1.21258698805 4.62830200685 0.0
1.16279096046 4.50802621409 0.0
0.995762647814 4.10018772517 0.0
0.456229040627 4.58966685246 0.0
0.707289391156 4.19030271873 0.0
0.763036833302 4.71795445535 0.0
[...]
POINT_DATA 999
VECTORS Displacement float
-3.19156159176e-05 -0.00446980982753 0
2.97543489513e-05 -0.00447123807218 0
0.0 -0.0045 0
0.0 -0.0045 0
3.13296960903e-05 -0.00447108329626 0
3.28732569933e-05 -0.00447084314384 0
3.42521087345e-05 -0.00447052354838 0
3.53841646728e-05 -0.00447025834449 0
3.5970583906e-05 -0.00447013441761 0
3.62101934726e-05 -0.00447023888392 0
3.55867314441e-05 -0.00447065394094 0
3.40038132006e-05 -0.00447147818243 0
3.13031162199e-05 -0.00447309740482 0
2.70235091358e-05 -0.00447577552517 0
2.09873240528e-05 -0.00448013940502 0
1.25050411442e-05 -0.00448720498042 0
0.0 -0.0045 0
0.0 -0.0045 0
0.0 -0.0045 0
0.0 -0.0045 0
0.0 -0.0045 0
0.0 -0.0045 0
0.0 -0.0045 0
0.0 -0.0045 0
0.0 -0.0045 0
0.0 -0.0045 0
0.0 -0.0045 0
0.0 -0.0045 0
0.0 -0.0045 0
0.0 -0.0045 0
0.0 -0.0045 0
0.0 -0.0045 0
0.0 -0.0045 0
-1.27199333509e-05 -0.00448690619179 0
-2.14357372468e-05 -0.00447960979416 0
-2.79257385863e-05 -0.0044750119423 0
-3.22779826137e-05 -0.00447212429711 0
-3.51401682779e-05 -0.00447037056147 0
-3.69154434151e-05 -0.00446945007695 0
-3.7702523673e-05 -0.00446897464656 0
-3.76060282875e-05 -0.00446881861862 0
-3.71495533507e-05 -0.00446890188834 0
-3.61346409556e-05 -0.00446913559545 0
-3.48621446808e-05 -0.00446943404482 0
-3.3412051166e-05 -0.00446966099868 0
-3.06837104799e-05 -0.00446905440376 0
-2.93215533787e-05 -0.00446823385489 0
-2.78340341471e-05 -0.00446727881369 0
-2.61961814694e-05 -0.00446618552712 0
-2.44241184567e-05 -0.00446490769042 0
-2.25628010672e-05 -0.00446341285726 0
-2.06009900488e-05 -0.004461730479 0
-1.84725692588e-05 -0.00445983795759 0
-1.62257882269e-05 -0.00445761356622 0
-1.39455795133e-05 -0.00445522264389 0
-1.15470492095e-05 -0.00445252435773 0
-8.99845743735e-06 -0.00444953594411 0
-6.4124530249e-06 -0.00444618310947 0
-3.71629473944e-06 -0.0044425104806 0
-9.43391045764e-07 -0.00443847374328 0
1.92922068327e-06 -0.00443401595936 0
4.8264259065e-06 -0.00442910311558 0
7.88338254775e-06 -0.00442373364032 0
1.0933155008e-05 -0.00441779611744 0
1.41250519656e-05 -0.00441123575197 0
1.72540214934e-05 -0.00440402181878 0
2.06175189787e-05 -0.00439606326918 0
2.3855309506e-05 -0.00438716542714 0
2.72797683569e-05 -0.00437731720813 0
3.06481273528e-05 -0.00436628426348 0
3.43444573242e-05 -0.00435371372768 0
3.76592121887e-05 -0.00433948751439 0
4.14220643725e-05 -0.00432269602615 0
4.44644694806e-05 -0.00430317803767 0
4.8328596694e-05 -0.00427915860396 0
5.09464524072e-05 -0.00424922470404 0
5.30484326112e-05 -0.00420625596663 0
4.76664880907e-05 -0.00413219568432 0
3.22482296602e-05 -0.00406485329669 0
-3.5490192889e-06 -0.00403900965604 0
-3.61862615831e-05 -0.00406298394454 0
-5.61719428988e-05 -0.00413446414086 0
-5.82734715286e-05 -0.00420760248853 0
-5.58274932966e-05 -0.00424976459695 0
-5.1884894791e-05 -0.00428097885592 0
-4.82762716918e-05 -0.0043043637005 0
-4.45342815748e-05 -0.0043235453727 0
-4.13003835161e-05 -0.00434023033327 0
-3.79585143375e-05 -0.00435444743841 0
-3.42395420473e-05 -0.00436702768824 0
-3.08240135014e-05 -0.00437810424667 0
-2.73273060888e-05 -0.00438798292032 0
-2.40121306869e-05 -0.00439686051646 0
-2.06125626536e-05 -0.00440481648496 0
-1.74355054663e-05 -0.00441205685811 0
-1.41967214865e-05 -0.00441864886952 0
-1.10904898725e-05 -0.00442462275207 0
-7.97264114599e-06 -0.00443002768737 0
-5.01299293387e-06 -0.00443497241604 0
-2.07938765534e-06 -0.00443945986497 0
7.53683675661e-07 -0.00444352504255 0
3.50842794595e-06 -0.00444722590409 0
6.15246692804e-06 -0.0044506074503 0
8.75867021163e-06 -0.00445362521156 0
1.12157070831e-05 -0.00445635288088 0
1.35547961884e-05 -0.00445877277507 0
1.58590762839e-05 -0.0044610241017 0
1.80442109637e-05 -0.00446294324345 0
2.00619903306e-05 -0.00446465209968 0
2.19795209957e-05 -0.00446617424286 0
2.38069298029e-05 -0.00446747995712 0
2.55005265491e-05 -0.0044686028407 0
2.70444057153e-05 -0.00446958896131 0
2.84632591203e-05 -0.00447044351431 0
2.87594412445e-05 -0.00443665300026 0
-2.96412476368e-05 -0.00443566682053 0
1.80755121455e-07 -0.00434817440567 0
-2.87829253173e-05 -0.00438150945718 0
3.35871548662e-05 -0.00445569114042 0
-3.54347862011e-05 -0.00445482924397 0
2.61205018942e-05 -0.00438080129933 0
-2.03675507106e-05 -0.0042887738036 0
1.72506339706e-05 -0.00428757382312 0
2.62888693134e-05 -0.00443221883284 0
-2.85839432507e-05 -0.00443070794516 0
-2.12081022744e-06 -0.00444082331518 0
-2.95305530709e-05 -0.00447017246475 0
2.84233912543e-05 -0.00447142212319 0
-1.82016549026e-05 -0.00435548461069 0
-1.80143368916e-05 -0.00440614514241 0
1.38123328957e-05 -0.00435754025825 0
1.51983287987e-05 -0.00440694391155 0
-2.89805112916e-05 -0.00445178580699 0
2.66678381824e-05 -0.00445269783728 0
-2.02132925965e-05 -0.00439452634353 0
3.18556311912e-05 -0.00446458546686 0
-3.38922037006e-05 -0.00446343843588 0
-5.38328717289e-06 -0.00420158628397 0
2.05002953299e-05 -0.00439331626922 0
1.39069826156e-05 -0.00446198186841 0
-1.22637316278e-05 -0.00430139053942 0
-1.57171570216e-05 -0.00446247968676 0
-1.72490260929e-05 -0.00443093481158 0
8.36898953277e-06 -0.00430250924642 0
1.45040852833e-05 -0.00443185674259 0
3.54904980843e-05 -0.00446629653149 0
-3.70644929457e-05 -0.00446530724323 0
3.04010660096e-05 -0.0044177214651 0
-3.24369566604e-05 -0.00441836112614 0
-2.00072974515e-05 -0.00434561784962 0
1.87684323806e-05 -0.004344522027 0
1.49712278836e-06 -0.00440007474126 0
-5.33819185555e-06 -0.00439032560554 0
2.26243593032e-06 -0.00439074446681 0
-1.08471594685e-06 -0.0043039254909 0
-1.7152528221e-05 -0.00443364088835 0
1.12214891858e-05 -0.00421570332311 0
-2.11270499588e-05 -0.0044458770209 0
1.85295403684e-05 -0.00444689330742 0
1.43530086544e-05 -0.00443455301685 0
3.23343939305e-05 -0.00443910909413 0
3.26764313927e-05 -0.00445308653783 0
-3.42017179179e-05 -0.00445436783466 0
-3.4226495679e-05 -0.0044380533602 0
-1.28085637098e-05 -0.00422920018737 0
2.74993886588e-05 -0.00446227521585 0
-2.97601937004e-05 -0.00446111865162 0
-2.88438814452e-05 -0.00440834805791 0
-2.5698471637e-05 -0.00434171777655 0
2.62906262052e-05 -0.00440950594306 0
2.35758755925e-05 -0.0044620285506 0
-2.64362362796e-05 -0.00445948889466 0
7.63475754031e-07 -0.00435069944005 0
2.2772800102e-05 -0.00434069199944 0
-3.39973445535e-05 -0.0044718190609 0
-2.32934817834e-05 -0.00448202830129 0
3.29198065662e-05 -0.00447258298119 0
2.29590561019e-05 -0.00448234485306 0
-5.20296115035e-06 -0.00435161332275 0
-7.70743633119e-06 -0.0044191312351 0
-1.72835462246e-05 -0.00448143115757 0
4.71004139939e-06 -0.00442000188923 0
1.51729996117e-05 -0.00448440950332 0
2.59373694147e-06 -0.00447187142102 0
-2.40071126128e-05 -0.00438146884137 0
-2.84795889937e-05 -0.00439453207715 0
-2.43731053762e-05 -0.00445642087057 0
2.1909295632e-05 -0.00445753969931 0
2.02559325025e-05 -0.0043819193325 0
1.20461416774e-06 -0.00413606234493 0
2.66444328928e-05 -0.00439361273126 0
-5.84447091441e-06 -0.00446799062924 0
2.63499185445e-06 -0.00425657721695 0
-3.33040147767e-05 -0.004457404018 0
3.12988420274e-05 -0.00445837363044 0
3.38961049046e-05 -0.00446435360472 0
3.48089880933e-05 -0.00446756978065 0
-3.66095897286e-05 -0.00446641238891 0
-1.22678039297e-05 -0.00436650204226 0
-2.28031659894e-05 -0.00432206846072 0
2.92696604967e-05 -0.00444452800837 0
-3.53455027079e-05 -0.00446414380961 0
1.32701353574e-05 -0.00436739235923 0
-3.16640580087e-05 -0.00444270732407 0
-2.40204021378e-05 -0.00441956813058 0
-1.52728665626e-05 -0.00444272318486 0
1.25240052313e-05 -0.00444372236258 0
-1.11715295696e-05 -0.00441105458789 0
2.73832420285e-05 -0.00441577653066 0
2.16639307441e-05 -0.00442146323726 0
-3.1047488691e-05 -0.00446505876373 0
2.8844317236e-05 -0.00446629792962 0
-1.78660930616e-05 -0.00424731428827 0
1.84964352146e-05 -0.00432230584825 0
-3.35437706637e-06 -0.00427169375056 0
8.13574756419e-06 -0.00432409884919 0
7.49423583349e-06 -0.0043755195156 0
-1.23398915726e-05 -0.00432685742121 0
-1.10453724912e-05 -0.00437776116799 0
-2.68556226551e-05 -0.00441357231281 0
-7.68484647775e-06 -0.00443100486972 0
6.72584722793e-09 -0.00440938781997 0
-3.36295318563e-05 -0.00443677395828 0
4.73946948398e-06 -0.00443193784716 0
-3.20385297437e-06 -0.00441020174983 0
-1.49028183056e-05 -0.00431219931658 0
7.3037665794e-06 -0.00445042935764 0
1.28373621645e-05 -0.00430994869526 0
2.22919375778e-05 -0.00444505125726 0
3.16840541907e-05 -0.00443463785776 0
1.16832119027e-05 -0.00448250738801 0
-3.579165004e-05 -0.00446148363818 0
3.39310797841e-05 -0.00446257011266 0
-8.94127571349e-06 -0.00414599378221 0
-2.41374449603e-05 -0.00443680768513 0
5.24663747598e-06 -0.00428190618736 0
2.13902176615e-05 -0.0044377652327 0
2.95694430226e-05 -0.00442277160396 0
3.22682395553e-05 -0.00446814924497 0
-3.42927700967e-05 -0.00446688251413 0
-3.17832288621e-05 -0.00442203043966 0
-2.38620839827e-05 -0.00444607125693 0
1.6623687651e-05 -0.00426655780784 0
-3.53641443423e-05 -0.00444836398063 0
-3.08031192435e-05 -0.00439980900514 0
-2.2016033225e-05 -0.00437369452215 0
1.27506807617e-05 -0.00440759892548 0
3.54553530805e-05 -0.00447020103539 0
-3.6850509229e-05 -0.00446919777835 0
-5.81368854895e-07 -0.00437413973432 0
-1.09219166567e-05 -0.00448394693897 0
3.36472677436e-05 -0.00444966733866 0
1.02797787042e-05 -0.00422756532501 0
2.85708111953e-05 -0.00440110695873 0
2.43351755851e-05 -0.00436993025145 0
5.76884471839e-06 -0.00442405487632 0
3.49363037499e-05 -0.00446183281843 0
-3.65473775729e-05 -0.00446096714524 0
2.24399481731e-05 -0.00442641895389 0
2.8784899727e-05 -0.00445254768768 0
-2.6060115122e-05 -0.00435951110549 0
-2.73542584741e-05 -0.00444466034397 0
2.40063809195e-05 -0.00444576967598 0
-1.98549463564e-05 -0.00445318292228 0
1.72552465672e-05 -0.00445427729361 0
-9.8659112988e-06 -0.00427741923127 0
6.37626202164e-06 -0.00448180823862 0
-1.3301228201e-05 -0.00448945976818 0
-1.0221629567e-05 -0.00433727330109 0
-2.38185036698e-06 -0.0041850015765 0
1.27056882143e-05 -0.00449004411504 0
9.40087195071e-06 -0.00433693395348 0
-1.37801170344e-05 -0.00433312372733 0
-7.76803604134e-06 -0.00448098036682 0
-1.6083395937e-05 -0.00437851583838 0
-1.66198624416e-05 -0.00441994073196 0
-9.85000035121e-06 -0.00444851901447 0
1.38536846722e-05 -0.00442053652946 0
6.1463407817e-06 -0.00439522849767 0
-9.4982014678e-06 -0.0043959822134 0
-2.5951640771e-05 -0.00446084580576 0
2.35475795812e-05 -0.00446202432331 0
9.39656616699e-06 -0.0043324280104 0
-2.06886622038e-05 -0.00428631208017 0
2.14249421326e-05 -0.00435951362757 0
-2.4415129714e-05 -0.00435767906704 0
-3.34346285943e-05 -0.00445107265084 0
-1.98963638753e-05 -0.00441727478141 0
2.21210174203e-05 -0.00439989678778 0
-1.94532297798e-05 -0.00447108810046 0
3.1050194434e-05 -0.00445216251507 0
3.25630749333e-05 -0.00444828947473 0
8.47625359081e-06 -0.00438660389147 0
-2.47260122188e-05 -0.00440150261727 0
-3.75114908742e-05 -0.00446788029572 0
3.59150008773e-05 -0.00446899811491 0
-7.59817726178e-06 -0.00436908927844 0
1.25979785804e-05 -0.00437965695862 0
-1.01768411275e-05 -0.00439041114716 0
1.35207103561e-05 -0.00448977937828 0
-9.10534474183e-06 -0.0042446797404 0
-3.02431520409e-05 -0.00447610211211 0
2.9595878119e-05 -0.00447656702705 0
-1.02082633966e-05 -0.00440276457403 0
6.68009303304e-06 -0.00440426271204 0
-1.46542248892e-05 -0.00448887856009 0
-3.06843592985e-05 -0.00444999763702 0
-3.21385708815e-05 -0.00443386118386 0
-3.07900503588e-05 -0.00446342797927 0
-2.31181725173e-05 -0.00447926254796 0
-3.1234188148e-05 -0.00442369336541 0
3.01313241229e-05 -0.00443547570296 0
2.39851581e-05 -0.00447198449933 0
2.23174295143e-05 -0.00447992187493 0
3.03830067642e-05 -0.00446187540043 0
3.11854097621e-06 -0.00436680433497 0
-2.47118360756e-05 -0.00447111415285 0
-2.23747960703e-05 -0.00431978607679 0
-1.796046402e-06 -0.00448378608907 0
-2.74108947679e-06 -0.00442000386592 0
2.10242672633e-05 -0.0043767763431 0
-9.45182307021e-06 -0.00443867754049 0
1.95809032861e-05 -0.00431793690346 0
6.571556743e-06 -0.00443965841316 0
3.47520998562e-05 -0.0044681582378 0
2.11815214605e-06 -0.00422382176638 0
-2.84604584627e-05 -0.00445716344948 0
2.61388985286e-05 -0.00445826305554 0
-1.59428514948e-05 -0.00444908351663 0
1.32334370284e-05 -0.00445014101547 0
-2.46792494801e-05 -0.00442958649708 0
-3.47683424282e-05 -0.00444758233124 0
-1.33883294513e-05 -0.00419366229769 0
-1.10085520806e-05 -0.0044341290022 0
-2.49921358472e-05 -0.00445100345331 0
2.25341520802e-05 -0.00445203812954 0
-3.61199916205e-05 -0.00446702741271 0
3.42468978308e-05 -0.00445794657508 0
2.45193952754e-05 -0.00436015036677 0
-2.83407421554e-05 -0.00446402120588 0
2.60237641219e-05 -0.00446525259264 0
1.71765977888e-05 -0.00447512328264 0
-3.56149473572e-05 -0.00445703308867 0
-3.25046371949e-05 -0.00446723455673 0
3.03735055709e-05 -0.00446853777883 0
1.36576120207e-05 -0.00435470762318 0
9.96470150369e-06 -0.00428752788881 0
-2.93707126988e-05 -0.00447537457434 0
2.84286794856e-05 -0.00447595753623 0
-2.83424193229e-05 -0.00442043260307 0
-1.56550110705e-05 -0.00426876595734 0
-4.3190115621e-07 -0.00432241773114 0
6.90836295354e-06 -0.00418869513349 0
3.1523627462e-05 -0.0044293871352 0
2.60098921385e-05 -0.00442160236816 0
-2.8091730796e-05 -0.00438008758624 0
-1.95076597891e-05 -0.00429984694249 0
-1.63343007052e-05 -0.00435542188349 0
3.1246373609e-05 -0.00444605736983 0
-3.27932995428e-05 -0.00446102445866 0
3.06929025722e-05 -0.00446212678098 0
1.49791930366e-05 -0.00444774424066 0
-3.34965551033e-05 -0.00442898074124 0
-2.85318903464e-05 -0.00439158387698 0
1.37447018861e-05 -0.00439312825014 0
-1.72592601249e-05 -0.00444758660333 0
-1.86582992232e-06 -0.00446153275987 0
-1.8828121114e-06 -0.00442251691746 0
-1.1973200144e-06 -0.00442340153368 0
-2.3542602373e-05 -0.00442903617403 0
2.02706885772e-05 -0.00443005620038 0
-3.52981171556e-05 -0.00447136500974 0
3.41254560666e-05 -0.00447228616293 0
-2.75431532623e-05 -0.00436826308062 0
2.60308588386e-05 -0.00439438230833 0
-1.80634321709e-05 -0.00439398518846 0
1.904373648e-05 -0.00446024967291 0
-1.08770458162e-05 -0.00423955642542 0
1.95401851604e-05 -0.00441122281385 0
3.38456922519e-05 -0.0044688799445 0
-3.57574572223e-05 -0.00446760632414 0
-1.83650381918e-05 -0.00443811513192 0
1.09026046277e-05 -0.00426180438165 0
1.56713977068e-05 -0.00443907425788 0
-2.41506809558e-05 -0.00434008422694 0
7.98202155472e-06 -0.0044668186149 0
8.82118864939e-06 -0.00449045839533 0
2.99506053585e-05 -0.00442472582536 0
-3.06915746923e-05 -0.00440989957534 0
3.39505280003e-05 -0.00446517464991 0
-3.58232617954e-05 -0.00446407917828 0
3.1841069526e-05 -0.00447006932527 0
-3.30701315704e-05 -0.0044691694873 0
1.70084746107e-05 -0.0042988514755 0
2.70260907168e-05 -0.00443992440988 0
2.01170432582e-05 -0.00430851171956 0
-2.34593008068e-06 -0.00409402645533 0
1.22243246953e-05 -0.00426072099339 0
-3.43804859743e-05 -0.00444636436439 0
-2.90812311824e-05 -0.00444027437258 0
-2.0976038951e-05 -0.0044569097148 0
1.84168108484e-05 -0.0044580485318 0
5.6832972632e-06 -0.00436675345779 0
2.15684699573e-05 -0.00433723776552 0
3.82877196162e-07 -0.00412965732901 0
2.26323767529e-05 -0.00448237136439 0
-3.15638579844e-05 -0.00445541423876 0
2.92721332589e-05 -0.00445647036637 0
2.80227763961e-05 -0.00440500197934 0
-2.51609608294e-05 -0.004480359969 0
-8.47794938248e-06 -0.00449095353163 0
3.29208707157e-05 -0.00444233980554 0
-2.14187562581e-05 -0.00446182465202 0
-2.24807927488e-05 -0.00434318638856 0
2.52370644893e-05 -0.00440089223151 0
2.88072622837e-05 -0.00441195655952 0
2.34643644344e-05 -0.00437270348829 0
2.71819402999e-05 -0.00438632431881 0
-2.52834021557e-05 -0.00439929784513 0
-3.34887447168e-05 -0.00446183063531 0
-4.15633687336e-06 -0.00433099743285 0
-9.920127318e-06 -0.00435534488904 0
-3.44277139934e-05 -0.00446071716099 0
3.24284918797e-05 -0.00446187793523 0
-2.30964080562e-05 -0.00445964013276 0
2.06019289997e-05 -0.00446081167392 0
2.02276095641e-05 -0.00431052094587 0
2.7775213951e-05 -0.00444862472269 0
2.64679582759e-05 -0.00444641081602 0
1.941841517e-05 -0.00434371453894 0
-3.12675096654e-05 -0.00441157642509 0
-1.51258491392e-05 -0.00435035099533 0
-3.16354640129e-05 -0.00444878306481 0
-3.2872229092e-05 -0.0044654853931 0
3.07636780206e-05 -0.00446671711756 0
2.72049872839e-06 -0.00448563916897 0
-1.26467884561e-05 -0.00441127642638 0
-1.1748503439e-05 -0.00442473377865 0
-3.45907701893e-05 -0.00444151806079 0
1.46808635128e-05 -0.00435110935849 0
-3.15484369856e-07 -0.00433276397316 0
-3.22201422437e-05 -0.00444184307795 0
2.01367300055e-05 -0.00441063379876 0
8.82496390641e-06 -0.00449236373547 0
1.27808826674e-05 -0.00438854429272 0
8.92760120244e-06 -0.00442565500581 0
-9.91429205107e-06 -0.0044651813736 0
-1.60755466786e-05 -0.00426085473455 0
1.03905639684e-05 -0.0044127407648 0
-8.02630244519e-06 -0.00431950043696 0
7.98387201934e-06 -0.00440449949644 0
-1.66320461486e-05 -0.00438965230792 0
-2.2358360638e-05 -0.00441018750457 0
-1.12760113394e-05 -0.00440529671625 0
-1.16840343678e-07 -0.00423026245437 0
6.54141337642e-06 -0.00431905367815 0
-7.3005291377e-06 -0.00415662437925 0
3.54767956573e-05 -0.00446901790578 0
-3.72041191731e-05 -0.00446781025983 0
1.83085083769e-05 -0.00436828721692 0
2.14188064816e-05 -0.00434327838073 0
-3.24572172378e-06 -0.00448906982287 0
-2.47579659091e-05 -0.0043435863618 0
-2.15661636705e-05 -0.00436950889719 0
3.49366608222e-06 -0.00441850742077 0
-1.37124485641e-06 -0.0044288674757 0
-2.32967519781e-05 -0.00431183489509 0
-6.6715637138e-06 -0.00441936583937 0
-1.68787084364e-06 -0.00442978954236 0
3.31063471609e-05 -0.00445998150556 0
1.57225942349e-05 -0.00447045342091 0
-5.01841379097e-06 -0.00436251541403 0
7.15233123029e-06 -0.00417639965548 0
-2.22057873947e-06 -0.00429711212392 0
2.10695291474e-05 -0.00425993488006 0
-1.88960809934e-05 -0.00431121563335 0
3.22309907868e-05 -0.00445548678244 0
3.3821449762e-05 -0.00446713365552 0
-3.57267820609e-05 -0.00446594965762 0
-2.78438634683e-05 -0.00444545594281 0
-3.67240005042e-05 -0.00446386605609 0
3.49915209039e-05 -0.00446488146723 0
3.98441487332e-06 -0.00443921644654 0
-2.71436491392e-05 -0.00438051940166 0
5.65756863387e-06 -0.00448913405768 0
8.77604234684e-06 -0.00417874534203 0
1.39468906733e-05 -0.00438488209012 0
-1.11572347091e-05 -0.00444561899271 0
8.33579367769e-06 -0.00444665239637 0
-3.50781794595e-05 -0.00445804755922 0
2.08179447936e-05 -0.00436255895042 0
-4.54144211363e-07 -0.00438091512396 0
-2.12029897691e-05 -0.0043672231169 0
2.67630405677e-05 -0.00446437338884 0
-1.63069285202e-05 -0.00429470526755 0
-2.36434102536e-05 -0.00436201918404 0
-5.17914186161e-07 -0.00430283527841 0
4.67725112418e-07 -0.00427924657167 0
-3.5947358771e-05 -0.00445467972331 0
-1.54528474728e-05 -0.00440043731669 0
1.4509977719e-05 -0.00423917452749 0
-5.59314158603e-06 -0.0044034122728 0
-1.80373799387e-05 -0.00437978343872 0
-9.38802417714e-07 -0.00439940077301 0
-1.37447586864e-05 -0.0044371109862 0
1.0943436616e-05 -0.00443807506819 0
-2.29855950724e-06 -0.00440018298763 0
6.92003240588e-06 -0.00435194148241 0
-1.74714001009e-05 -0.00422840143778 0
1.05420155277e-06 -0.00438572070753 0
3.51458144555e-05 -0.0044651038361 0
-3.6634800027e-05 -0.00446407167543 0
-8.18883342574e-06 -0.00449287184682 0
1.73895890059e-05 -0.00436947867086 0
3.42417290795e-05 -0.00445530992364 0
-1.36676014267e-05 -0.0042149634173 0
-2.45330342958e-05 -0.00427784959798 0
-3.22568992654e-05 -0.00446337144239 0
3.01146678739e-05 -0.00446454726723 0
-2.97382660017e-05 -0.00446653461443 0
2.74772247936e-05 -0.00446782938707 0
7.20778197682e-06 -0.00423890365545 0
-3.37610518865e-05 -0.004443020035 0
-8.48214011721e-07 -0.00436487627208 0
3.15686847149e-05 -0.00446712489711 0
2.38108600226e-05 -0.00438871115709 0
4.86582468378e-06 -0.00434935701066 0
3.3156096709e-05 -0.00445905088417 0
-3.34138142957e-05 -0.00446812985456 0
3.13338386655e-05 -0.00446946752964 0
9.08069661813e-06 -0.00443566893225 0
2.6150875571e-05 -0.00442627249214 0
-6.53967267083e-06 -0.00441086785947 0