# vtk DataFile Version 2.0
Generated with Solid Solver
ASCII
DATASET UNSTRUCTURED_GRID
POINTS 999 float 
0.2 4.3001 0.0
1.4 4.3001 0.0
1.4 4.8001 0.0
0.2 4.8001 0.0
1.4 4.32033264049 0.0
1.4 4.34261203886 0.0
1.4 4.36714525371 0.0
1.4 4.3941602782 0.0
1.4 4.42390817466 0.0
1.4 4.45666541084 0.0
1.4 4.49273640748 0.0
1.4 4.5324564007 0.0
1.4 4.57619451608 0.0
1.4 4.62435723872 0.0
1.4 4.67739217343 0.0
1.4 4.73579218095 0.0
1.33333333333 4.8001 0.0
1.26666666667 4.8001 0.0
1.2 4.8001 0.0
1.13333333333 4.8001 0.0
1.06666666667 4.8001 0.0
1.0 4.8001 0.0
0.933333333334 4.8001 0.0
0.866666666668 4.8001 0.0
0.800000000001 4.8001 0.0
0.733333333334 4.8001 0.0
0.666666666668 4.8001 0.0
0.600000000001 4.8001 0.0
0.533333333334 4.8001 0.0
0.466666666667 4.8001 0.0
0.4 4.8001 0.0
0.333333333334 4.8001 0.0
0.266666666667 4.8001 0.0
0.2 4.73579218095 0.0
0.2 4.67739217343 0.0
0.2 4.62435723872 0.0
0.2 4.57619451608 0.0
0.2 4.5324564007 0.0
0.2 4.49273640748 0.0
0.2 4.45666541084 0.0
0.2 4.42390817466 0.0
0.2 4.3941602782 0.0
0.2 4.36714525371 0.0
0.2 4.34261203886 0.0
0.2 4.32033264049 0.0
0.212131543907 4.28436329506 0.0
0.224675715302 4.26895348652 0.0
0.23762369102 4.25388141198 0.0
0.250966423879 4.23915760374 0.0
0.264694484585 4.22479246611 0.0
0.278798324214 4.21079599189 0.0
0.293267939266 4.19717810803 0.0
0.308093289028 4.18394826442 0.0
0.323263842145 4.17111585877 0.0
0.338769084145 4.15868978512 0.0
0.354597997314 4.14667887342 0.0
0.37073960121 4.13509145532 0.0
0.387182441982 4.12393575334 0.0
0.403915091795 4.11321952025 0.0
0.420925712897 4.10295033813 0.0
0.438202430937 4.09313537461 0.0
0.455733079095 4.08378154223 0.0
0.473505374364 4.07489539439 0.0
0.491506842655 4.06648316882 0.0
0.509724826085 4.0585507802 0.0
0.528146580414 4.05110377808 0.0
0.546759103951 4.04414741762 0.0
0.56554943677 4.03768654322 0.0
0.584504260001 4.03172573401 0.0
0.60361041518 4.0262691282 0.0
0.622854334779 4.02132060039 0.0
0.642222678753 4.01688358113 0.0
0.661701681839 4.01296122392 0.0
0.681277836375 4.00955624851 0.0
0.700937245817 4.00667107217 0.0
0.720666255912 4.00430769845 0.0
0.740450894784 4.00246780161 0.0
0.76027736978 4.00115266363 0.0
0.780131702711 4.00036321235 0.0
0.799999999998 4.0001 0.0
0.819868297285 4.00036321235 0.0
0.839722630216 4.00115266363 0.0
0.859549105212 4.00246780161 0.0
0.879333744085 4.00430769845 0.0
0.89906275418 4.00667107217 0.0
0.918722163621 4.00955624851 0.0
0.938298318157 4.01296122392 0.0
0.957777321244 4.01688358113 0.0
0.977145665218 4.02132060039 0.0
0.996389584817 4.0262691282 0.0
1.01549574 4.03172573401 0.0
1.03445056323 4.03768654322 0.0
1.05324089605 4.04414741762 0.0
1.07185341958 4.05110377808 0.0
1.09027517391 4.0585507802 0.0
1.10849315734 4.06648316882 0.0
1.12649462563 4.07489539439 0.0
1.1442669209 4.08378154222 0.0
1.16179756906 4.0931353746 0.0
1.1790742871 4.10295033813 0.0
1.1960849082 4.11321952024 0.0
1.21281755802 4.12393575334 0.0
1.22926039879 4.13509145532 0.0
1.24540200269 4.14667887342 0.0
1.26123091585 4.15868978512 0.0
1.27673615785 4.17111585877 0.0
1.29190671097 4.18394826442 0.0
1.30673206073 4.19717810803 0.0
1.32120167579 4.21079599189 0.0
1.33530551541 4.22479246611 0.0
1.34903357612 4.23915760374 0.0
1.36237630898 4.25388141198 0.0
1.3753242847 4.26895348652 0.0
1.38786845609 4.28436329506 0.0
1.05632730172 4.43535283906 0.0
0.549964048968 4.4381053958 0.0
0.806135520676 4.28696690218 0.0
0.60389578305 4.23589310371 0.0
1.22984770884 4.35828704125 0.0
0.3703382852 4.35933552752 0.0
0.995322815839 4.23075031136 0.0
0.728315816804 4.1516935937 0.0
0.872128173905 4.14798724072 0.0
1.14059401893 4.24808468684 0.0
0.461553191009 4.24691671009 0.0
0.784706775856 4.54331390922 0.0
0.398287125272 4.55455970538 0.0
1.20625306554 4.55844743514 0.0
0.624100842742 4.1340824436 0.0
0.5257453845 4.16321776279 0.0
0.978502430793 4.12998737058 0.0
1.07419209812 4.16335154482 0.0
0.364313698077 4.26187035763 0.0
1.23509538257 4.26191716733 0.0
0.68124123937 4.36794548972 0.0
1.31679378691 4.32522066749 0.0
0.283206213094 4.32522066749 0.0
0.791498533126 4.08977141721 0.0
0.931481076052 4.3552344917 0.0
0.96671906557 4.60288042839 0.0
0.684451667517 4.08578036752 0.0
0.618335406951 4.60196910993 0.0
0.450982331762 4.17196171732 0.0
0.915674266355 4.08505633851 0.0
1.14900051594 4.17199012964 0.0
1.30193709687 4.4232448133 0.0
0.29857466761 4.42326296922 0.0
1.05734787542 4.32500107617 0.0
0.539273225177 4.32762599628 0.0
0.709896798149 4.25231026287 0.0
0.895708916005 4.24434194389 0.0
0.813273511364 4.41345766235 0.0
0.559289631452 4.10740879113 0.0
1.04001407307 4.10791539633 0.0
0.801161810585 4.20656244955 0.0
0.665113819616 4.49566650186 0.0
0.852577362173 4.06621846388 0.0
0.39025672787 4.1993806298 0.0
1.20974450479 4.19938104599 0.0
0.921542541183 4.50288058719 0.0
1.14030889032 4.33947344809 0.0
1.15600477272 4.44318538305 0.0
0.435243219029 4.4501581257 0.0
0.462045157798 4.34164654286 0.0
0.735806812738 4.05982269746 0.0
1.30082934537 4.27303772796 0.0
0.299170654625 4.27303772796 0.0
0.533651712118 4.23775983853 0.0
0.666130919144 4.19162131559 0.0
1.0676097303 4.23689469382 0.0
1.08054433577 4.56040946155 0.0
0.506773767255 4.54078295079 0.0
0.626745312844 4.07634420826 0.0
0.933845304214 4.1857954732 0.0
0.293717639664 4.52685000185 0.0
0.31250502208 4.63936411351 0.0
1.3058164124 4.52664930624 0.0
1.29054387065 4.63812765963 0.0
0.973467966326 4.07451619478 0.0
0.487935413164 4.12597084015 0.0
0.461549079751 4.66346834982 0.0
1.11203248746 4.12603503889 0.0
1.14453515393 4.68127370303 0.0
0.840217564202 4.66401146633 0.0
0.585347033288 4.18049048534 0.0
0.619177396637 4.31737576306 0.0
0.331644410315 4.22472190462 0.0
1.26835558968 4.22472190462 0.0
1.01536156978 4.17497473052 0.0
0.809331033562 4.04575709122 0.0
0.982321540791 4.30947358971 0.0
0.725600576914 4.64509651799 0.0
0.812291456186 4.14152942492 0.0
0.335887692543 4.31428235669 0.0
1.26344844681 4.31527131907 0.0
1.23449730504 4.46967441524 0.0
1.34334172096 4.38049551957 0.0
0.256658279045 4.38049551957 0.0
0.741646926828 4.31797908527 0.0
0.674799084703 4.14183768522 0.0
1.18647435526 4.28465189749 0.0
0.360563250284 4.47106479569 0.0
0.873716483853 4.31355499203 0.0
0.418704489949 4.28656264283 0.0
0.492670911224 4.20441614809 0.0
0.403480880356 4.16556776931 0.0
1.19651541215 4.1655686246 0.0
0.728649253738 4.43724546491 0.0
1.00883674467 4.37684664879 0.0
1.11035034557 4.20671841276 0.0
0.261968539765 4.2881079512 0.0
1.33803146023 4.2881079512 0.0
0.74649980488 4.1069354354 0.0
0.927597725248 4.1328597079 0.0
0.892956618256 4.05129338913 0.0
0.659794281787 4.05461387326 0.0
0.587663534405 4.06996537006 0.0
0.942353209926 4.05445300973 0.0
1.01493747319 4.06986013719 0.0
0.613130017774 4.38879803882 0.0
0.449373501074 4.12887191978 0.0
0.514840228377 4.09735850006 0.0
0.497057592 4.38843092106 0.0
1.15061382426 4.12889293084 0.0
1.08514419473 4.09738328152 0.0
0.745617635771 4.20608957592 0.0
0.875234522129 4.57363036549 0.0
0.855262884783 4.2009970831 0.0
1.01126200032 4.50790064162 0.0
1.09391916408 4.38142408872 0.0
1.04436265455 4.68992000827 0.0
0.314320181089 4.36283968607 0.0
1.28649331902 4.36253720145 0.0
0.771211579291 4.03826862024 0.0
0.432259099658 4.21516002157 0.0
0.698583889427 4.04654353526 0.0
1.16802128371 4.213962881 0.0
1.09587629216 4.2837676659 0.0
1.35920470355 4.33176960471 0.0
0.240795296449 4.33176960471 0.0
0.504003580654 4.28325758118 0.0
0.579942709371 4.5093075073 0.0
0.875915224914 4.10325792528 0.0
0.426503136644 4.38227733008 0.0
0.57541416445 4.27875301522 0.0
0.683877978289 4.30671848113 0.0
0.888061695889 4.42143509246 0.0
1.33987712478 4.47369249103 0.0
0.26012287522 4.47369249103 0.0
0.801393572636 4.34570096582 0.0
0.558460082533 4.70006728209 0.0
1.1741923373 4.38642830101 0.0
0.83220012886 4.10289415912 0.0
1.02815069622 4.27563276509 0.0
0.948308583502 4.2631204454 0.0
0.846588933095 4.48344596945 0.0
1.25632767671 4.40990360053 0.0
0.343666800815 4.40995820652 0.0
0.97849585731 4.44541535602 0.0
1.10170977548 4.49017265998 0.0
0.662193131828 4.24319398492 0.0
0.400503668388 4.24391657105 0.0
1.20117145985 4.23640427377 0.0
0.350957892513 4.19306558019 0.0
1.24904210749 4.19306558019 0.0
0.771964652188 4.16415379403 0.0
0.932165148285 4.70246281402 0.0
0.373672364094 4.70831357765 0.0
0.760245937722 4.25919350779 0.0
0.848718469252 4.03277763075 0.0
1.23385612561 4.7109294747 0.0
0.846421485813 4.25575918421 0.0
0.651597058631 4.10553284014 0.0
0.650489852551 4.69648045504 0.0
0.58457834847 4.13885088261 0.0
0.48701309933 4.16369927013 0.0
0.708495738406 4.56366947756 0.0
1.11203398596 4.16388062515 0.0
0.54865558244 4.07760047869 0.0
1.05126102377 4.07744629471 0.0
0.300013757486 4.23769646442 0.0
1.29998624251 4.23769646442 0.0
0.9465032388 4.10228070354 0.0
0.708587583337 4.11656095907 0.0
0.973348904468 4.17047871864 0.0
0.628721855632 4.17048356945 0.0
0.380175010019 4.31531880077 0.0
0.662092932411 4.43409041267 0.0
1.05133526787 4.19731992007 0.0
0.528087045766 4.61837882187 0.0
1.22233124543 4.31031693908 0.0
1.19001193434 4.33783586668 0.0
0.853024099244 4.37054003492 0.0
0.542800296246 4.19834366905 0.0
0.247706318737 4.42749119247 0.0
1.35229368126 4.42749119247 0.0
0.599153768578 4.10463797005 0.0
1.01616570494 4.13737683178 0.0
0.744705786938 4.38079544575 0.0
1.31929001115 4.71212550052 0.0
0.777615355331 4.12623602511 0.0
0.265621610877 4.58485488866 0.0
1.33132411895 4.58141378639 0.0
0.532023338888 4.12884454388 0.0
1.0697792195 4.12751429251 0.0
0.286371037106 4.70520312914 0.0
0.497725885905 4.47663668256 0.0
0.46053455822 4.29097947599 0.0
0.433799237968 4.52139400991 0.0
0.388624781906 4.62604200004 0.0
0.554823673752 4.37961940232 0.0
1.1421595646 4.29328301431 0.0
1.14760043966 4.59165103139 0.0
1.21258698805 4.62830200685 0.0
1.16279096046 4.50802621409 0.0
0.995762647814 4.10018772517 0.0
0.456229040627 4.58966685246 0.0
0.707289391156 4.19030271873 0.0
0.763036833302 4.71795445535 0.0
[...]
POINT_DATA 999
VECTORS Displacement float
-7.18767446774e-05 -0.00893152452927 0
6.85328280765e-05 -0.00893369568405 0
0.0 -0.009 0
0.0 -0.009 0
7.21310278193e-05 -0.00893334261252 0
7.56520560347e-05 -0.00893279613855 0
7.87914764299e-05 -0.00893207031159 0
8.13620463967e-05 -0.00893147344727 0
8.26783052749e-05 -0.00893120464922 0
8.31969669116e-05 -0.00893146448458 0
8.17356164632e-05 -0.00893244164329 0
7.80741955069e-05 -0.00893436325576 0
7.18522507074e-05 -0.00893811317794 0
6.20141178517e-05 -0.00894429637885 0
4.81542667708e-05 -0.00895434841322 0
2.86917135802e-05 -0.00897060027975 0
0.0 -0.009 0
0.0 -0.009 0
0.0 -0.009 0
0.0 -0.009 0
0.0 -0.009 0
0.0 -0.009 0
0.0 -0.009 0
0.0 -0.009 0
0.0 -0.009 0
0.0 -0.009 0
0.0 -0.009 0
0.0 -0.009 0
0.0 -0.009 0
0.0 -0.009 0
0.0 -0.009 0
0.0 -0.009 0
0.0 -0.009 0
-2.8953206924e-05 -0.00897020774502 0
-4.8770864456e-05 -0.00895362404953 0
-6.35083299905e-05 -0.0089431842532 0
-7.33607104378e-05 -0.00893663976884 0
-7.98113019868e-05 -0.00893267361414 0
-8.37813435813e-05 -0.00893060362486 0
-8.54980946285e-05 -0.00892954352481 0
-8.51993255847e-05 -0.0089292084756 0
-8.40832835283e-05 -0.00892941596812 0
-8.16949821425e-05 -0.00892996389191 0
-7.8722439744e-05 -0.00893065596647 0
-7.53493166e-05 -0.00893118116757 0
-6.90208340866e-05 -0.00892977063987 0
-6.58673139974e-05 -0.00892786923329 0
-6.24264421948e-05 -0.00892566032105 0
-5.86409327737e-05 -0.00892313466495 0
-5.45475979984e-05 -0.0089201860791 0
-5.02490802617e-05 -0.00891673955576 0
-4.57197332222e-05 -0.00891286266556 0
-4.08073042895e-05 -0.00890850291274 0
-3.56225066461e-05 -0.00890338069143 0
-3.03601116288e-05 -0.00889787531468 0
-2.48247404632e-05 -0.0088916628384 0
-1.89430158948e-05 -0.00888478248617 0
-1.29738046788e-05 -0.00887706245675 0
-6.74929324061e-06 -0.00886860497856 0
-3.45841526245e-07 -0.0088593073362 0
6.29012876788e-06 -0.00884903684063 0
1.29857540277e-05 -0.00883771344821 0
2.00548856533e-05 -0.0088253319474 0
2.71107710262e-05 -0.00881163246326 0
3.45032393263e-05 -0.00879648407059 0
4.17542708542e-05 -0.00877981175411 0
4.95640984626e-05 -0.00876139618855 0
5.70880760755e-05 -0.00874077447398 0
6.50716765285e-05 -0.00871790254224 0
7.29376106214e-05 -0.00869221701037 0
8.16366977495e-05 -0.00866281803822 0
8.94317712558e-05 -0.00862939539787 0
9.84240271454e-05 -0.00858951363254 0
0.000105558912542 -0.00854270976089 0
0.000115014503002 -0.00848313006088 0
0.000120476088832 -0.00840525652559 0
0.00011782722043 -0.0082710874075 0
9.28690538936e-05 -0.00815304133002 0
5.32951725966e-05 -0.0080841331187 0
-5.37801684902e-06 -0.00805723153848 0
-5.84009232487e-05 -0.00808235077662 0
-0.000103531537718 -0.00815426546825 0
-0.000127593842337 -0.00827121869888 0
-0.000128308132245 -0.00840478544809 0
-0.000120290419676 -0.00848598437778 0
-0.000112137511511 -0.0085438227832 0
-0.000103083626369 -0.00859030701428 0
-9.53717043983e-05 -0.00863006924304 0
-8.74673303927e-05 -0.00866358635049 0
-7.87001568745e-05 -0.00869305430447 0
-7.07368565779e-05 -0.00871886748837 0
-6.26069646222e-05 -0.00874182187196 0
-5.49335652421e-05 -0.00876240176781 0
-4.70719808464e-05 -0.00878081362308 0
-3.97440697082e-05 -0.00879754673125 0
-3.22778394111e-05 -0.0088127645518 0
-2.51281018283e-05 -0.00882654140575 0
-1.79546563073e-05 -0.00883899656674 0
-1.11524711674e-05 -0.00885038402483 0
-4.41286944596e-06 -0.00886071257956 0
2.09178388266e-06 -0.00887006457793 0
8.41404336779e-06 -0.00887857529087 0
1.44795599358e-05 -0.00888634913538 0
2.04571823502e-05 -0.00889328395481 0
2.60899495214e-05 -0.00889955026127 0
3.14506187773e-05 -0.00890510772181 0
3.67310527087e-05 -0.00891027758564 0
4.17368955087e-05 -0.00891468269766 0
4.63575547045e-05 -0.00891860429196 0
5.07476018665e-05 -0.00892209642884 0
5.49307775202e-05 -0.00892509089047 0
5.88063453545e-05 -0.00892766468259 0
6.23379017099e-05 -0.00892992379348 0
6.5582412814e-05 -0.00893187961475 0
6.59836449602e-05 -0.0088547873854 0
-6.70002873516e-05 -0.00885298121646 0
1.04751850686e-06 -0.00865403747628 0
-6.41992354292e-05 -0.00872873694098 0
7.72414598087e-05 -0.00889813095229 0
-8.0091366674e-05 -0.00889689475404 0
5.98951041492e-05 -0.00872634049611 0
-4.28308855446e-05 -0.00851892633448 0
3.77314362079e-05 -0.00851544278655 0
6.06133503108e-05 -0.00884415874543 0
-6.41030679078e-05 -0.00884146611145 0
-4.5514860075e-06 -0.00886481584081 0
-6.7066685236e-05 -0.0089319232786 0
6.52057875768e-05 -0.00893437528566 0
-3.97206219135e-05 -0.00866789733822 0
-3.96497508434e-05 -0.00878483658417 0
3.20545378717e-05 -0.00867163399175 0
3.53068370896e-05 -0.00878584162572 0
-6.50715562987e-05 -0.00888994141536 0
6.14829914715e-05 -0.00889118927318 0
-4.52186121261e-05 -0.0087591863629 0
7.33261287384e-05 -0.00891848401319 0
-7.64701626432e-05 -0.00891676179115 0
-9.1637507333e-06 -0.00833448609339 0
4.7008548294e-05 -0.00875600985358 0
3.19060367354e-05 -0.00891299872751 0
-2.53840906943e-05 -0.0085416464208 0
-3.56125035557e-05 -0.0089142844531 0
-3.79504252081e-05 -0.00884194928605 0
1.93181309755e-05 -0.00854276213901 0
3.36779157664e-05 -0.00884323386409 0
8.15574917473e-05 -0.00892246951728 0
-8.39757927106e-05 -0.00892097198345 0
6.98088121179e-05 -0.00881119695235 0
-7.30468227807e-05 -0.00881328022134 0
-4.39788013726e-05 -0.00864789350844 0
4.26695631646e-05 -0.00864483348302 0
3.85173626332e-06 -0.00877187119541 0
-1.04518765386e-05 -0.00874817161978 0
5.74634057127e-06 -0.00874827014098 0
-1.65208983491e-06 -0.00855455573063 0
-3.86639983462e-05 -0.00884843239021 0
1.88288211356e-05 -0.00835113842981 0
-4.69198059567e-05 -0.00887635306181 0
4.2871761186e-05 -0.00887782772082 0
3.29986303197e-05 -0.00885033041375 0
7.4336015981e-05 -0.00886012728688 0
7.5021186072e-05 -0.00889229579284 0
-7.74923059529e-05 -0.00889576820988 0
-7.7253590571e-05 -0.00885837740571 0
-2.15880374592e-05 -0.00837613964169 0
6.33803062235e-05 -0.00891316741737 0
-6.68830849233e-05 -0.00891143548394 0
-6.45851450347e-05 -0.00879011714436 0
-5.64232687488e-05 -0.00863785475707 0
6.05460530088e-05 -0.00879200992742 0
5.40600311334e-05 -0.008912965961 0
-5.99575107746e-05 -0.00890745216781 0
3.50993701808e-06 -0.00865595022872 0
5.1666729203e-05 -0.00863461167007 0
-7.72078934245e-05 -0.00893581771691 0
-5.29821937478e-05 -0.00895905358979 0
7.55689697823e-05 -0.00893695279494 0
5.2661293386e-05 -0.00895942035738 0
-1.10891879644e-05 -0.00865704522038 0
-1.59323558707e-05 -0.00881472897612 0
-3.9296603949e-05 -0.00895759842923 0
1.12455067407e-05 -0.00881589625537 0
3.47682724772e-05 -0.00896424093826 0
6.03426634381e-06 -0.00893569961467 0
-5.32307180715e-05 -0.00872816807244 0
-6.38384500103e-05 -0.00875892874223 0
-5.44255767869e-05 -0.00890062519797 0
5.05954384679e-05 -0.008902287484 0
4.67471208132e-05 -0.00872830776192 0
-9.46420507054e-07 -0.00820814853926 0
6.10438544235e-05 -0.00875624746763 0
-1.3171858926e-05 -0.00892686603192 0
5.99778935358e-06 -0.00844996890924 0
-7.5101374499e-05 -0.00890285247219 0
7.20520353214e-05 -0.00890424285353 0
7.78323908066e-05 -0.00891808669398 0
8.00478139628e-05 -0.00892534281104 0
-8.28230145736e-05 -0.00892360014349 0
-2.70010368719e-05 -0.00869554918758 0
-4.92800556911e-05 -0.00859194804684 0
6.74154859682e-05 -0.0088724590626 0
-8.01653964088e-05 -0.00891819925092 0
3.04976047454e-05 -0.00869724416939 0
-7.12701081855e-05 -0.00886905463801 0
-5.35312626108e-05 -0.00881581226141 0
-3.34083777046e-05 -0.00886909442322 0
2.91134761142e-05 -0.00887052694493 0
-2.49217255068e-05 -0.00879692853747 0
6.28052857166e-05 -0.00880703206059 0
5.00628028179e-05 -0.00881937088635 0
-6.98645781451e-05 -0.00892052388573 0
6.64534277142e-05 -0.00892239173969 0
-3.48244141352e-05 -0.00842631179795 0
4.18793317475e-05 -0.00859111014401 0
-6.16993479736e-06 -0.00846644200718 0
2.0210053761e-05 -0.00859313858742 0
1.91286060993e-05 -0.00871375453912 0
-2.71474999023e-05 -0.0085984662848 0
-2.48120069526e-05 -0.00871807466792 0
-6.04516558125e-05 -0.00880252069125 0
-1.58905634394e-05 -0.00884210182376 0
1.87401222387e-06 -0.00879223036394 0
-7.59956966733e-05 -0.00885547069573 0
1.12751486363e-05 -0.0088434018023 0
-6.91623470166e-06 -0.00879326956553 0
-3.19629391506e-05 -0.00857269146927 0
1.68679991655e-05 -0.008886680094 0
2.88580788243e-05 -0.0085672090249 0
5.11333191026e-05 -0.00887416769846 0
7.2752000827e-05 -0.00885001321396 0
2.67648986988e-05 -0.00895992984542 0
-8.09150669943e-05 -0.00891221719375 0
7.80424087441e-05 -0.00891389168967 0
-5.15323395257e-06 -0.00821759171071 0
-5.38529091023e-05 -0.00885548022899 0
1.31169725692e-05 -0.00849191236092 0
4.94303586661e-05 -0.00885685728225 0
6.80274112432e-05 -0.00882258306893 0
7.42710174355e-05 -0.0089266426094 0
-7.73974502291e-05 -0.00892472813143 0
-7.14714775519e-05 -0.0088215930524 0
-5.39972507313e-05 -0.00887678782439 0
3.49850826668e-05 -0.00846515338476 0
-7.99774426957e-05 -0.00888202896901 0
-6.90735235364e-05 -0.00877074495681 0
-4.89861003968e-05 -0.00871165883295 0
2.9386732314e-05 -0.00878884279574 0
8.14371840338e-05 -0.00893143378502 0
-8.36023063444e-05 -0.00892991493539 0
-7.52013118885e-07 -0.00871290573726 0
-2.48218907148e-05 -0.0089633278786 0
7.73162183813e-05 -0.0088843766089 0
1.99978518524e-05 -0.008385862492 0
6.55923099082e-05 -0.00877301748815 0
5.56078748292e-05 -0.00870214199217 0
1.34707479321e-05 -0.00882648958155 0
8.02866687736e-05 -0.00891224668827 0
-8.27637970247e-05 -0.00891097322534 0
5.14835917137e-05 -0.00883157312741 0
6.60369219725e-05 -0.00889117397238 0
-5.77366914459e-05 -0.00867893936881 0
-6.12993273053e-05 -0.0088735483383 0
5.54046830406e-05 -0.00887526639239 0
-4.39914685157e-05 -0.0088931746336 0
3.99403582463e-05 -0.00889478917686 0
-2.02299014049e-05 -0.00849560806357 0
1.46259587006e-05 -0.00895838115867 0
-3.02745946657e-05 -0.00897595892073 0
-2.20668130301e-05 -0.00862939773848 0
-1.35558028785e-05 -0.00827087037107 0
2.91218493892e-05 -0.0089771366579 0
2.16102675488e-05 -0.00862834026236 0
-2.94415112834e-05 -0.00861568863292 0
-1.76199157774e-05 -0.00895654461705 0
-3.50959833257e-05 -0.00872102789885 0
-3.64784576461e-05 -0.00881662198174 0
-2.21757633279e-05 -0.00888240314406 0
3.22129117614e-05 -0.00881716309801 0
1.60555081872e-05 -0.00875948047285 0
-2.13616829122e-05 -0.00876037260314 0
-5.80747033748e-05 -0.00891081721014 0
5.43411108773e-05 -0.008912581888 0
2.19706553698e-05 -0.00861289442722 0
-4.31704790506e-05 -0.00851066154083 0
4.9136907905e-05 -0.00867692989806 0
-5.38251405609e-05 -0.00867360612857 0
-7.54019187002e-05 -0.00888828002912 0
-4.47445603256e-05 -0.00881106736028 0
5.10559338504e-05 -0.00876976300027 0
-4.41693474002e-05 -0.00893395547173 0
7.14779382137e-05 -0.00888999729221 0
7.48999804248e-05 -0.00888114918908 0
1.96945174813e-05 -0.00874109820801 0
-5.50574530887e-05 -0.00877426865821 0
-8.50009446808e-05 -0.00892695380062 0
8.2538409146e-05 -0.00892863825765 0
-1.56311887656e-05 -0.00869898232853 0
2.93962592019e-05 -0.00872276346208 0
-2.25108237664e-05 -0.00874991524872 0
3.10061234155e-05 -0.00897650776969 0
-1.77252415334e-05 -0.0084242284362 0
-6.87469579996e-05 -0.00894560872549 0
6.79170437549e-05 -0.00894611233869 0
-2.16793623385e-05 -0.00877696630015 0
1.5823413514e-05 -0.00877957567627 0
-3.33561715847e-05 -0.00897467577145 0
-6.95060364472e-05 -0.00888574999562 0
-7.23471140105e-05 -0.0088487363186 0
-6.98683937221e-05 -0.008916485418 0
-5.25618855885e-05 -0.0089526833454 0
-7.04538415167e-05 -0.00882556735833 0
6.93528487972e-05 -0.00885171201484 0
5.49969125768e-05 -0.00893572793189 0
5.11742544251e-05 -0.0089538972725 0
6.97156623775e-05 -0.00891249341595 0
7.82532760547e-06 -0.00869269141102 0
-5.61283369412e-05 -0.00893403456083 0
-4.84668010824e-05 -0.00858884757557 0
-4.02710546645e-06 -0.00896294557918 0
-5.85486213e-06 -0.00881731740583 0
4.81144022861e-05 -0.00871821747437 0
-1.99751079636e-05 -0.00885977783377 0
4.39170556454e-05 -0.00858397893856 0
1.54625561613e-05 -0.00886117343124 0
7.98125455173e-05 -0.00892677936927 0
9.67796969977e-06 -0.00835164906963 0
-6.38733305423e-05 -0.0089023254805 0
6.0271908091e-05 -0.00890395924466 0
-3.49607473475e-05 -0.00888373852954 0
3.07275238673e-05 -0.00888528235893 0
-5.56991037996e-05 -0.00883912939436 0
-7.85270956895e-05 -0.00888024572035 0
-2.09663168595e-05 -0.00831277699734 0
-2.47164960363e-05 -0.0088495573769 0
-5.58505899821e-05 -0.00888814985901 0
5.20318229371e-05 -0.00888965759696 0
-8.19310370148e-05 -0.00892485640558 0
7.86673922943e-05 -0.00890337712826 0
5.59531774173e-05 -0.00867936533772 0
-6.35983589031e-05 -0.00891813562581 0
6.00050305186e-05 -0.00891998943476 0
3.93645026889e-05 -0.00894299177177 0
-8.06765298833e-05 -0.00890190175332 0
-7.32429252524e-05 -0.00892555204166 0
6.99471037754e-05 -0.008927523979 0
3.32858854033e-05 -0.00866518570819 0
2.2123185507e-05 -0.00851733201215 0
-6.67471043141e-05 -0.00894386516856 0
6.52249402235e-05 -0.00894474823618 0
-6.35005923544e-05 -0.0088178521736 0
-3.12324609313e-05 -0.00846758479531 0
-2.67958202426e-07 -0.00859599649026 0
1.08033772543e-05 -0.00830599034694 0
7.24499725364e-05 -0.00883785548998 0
5.99572395597e-05 -0.00881977196056 0
-6.27123192828e-05 -0.00872584970402 0
-4.31065052118e-05 -0.00853318206084 0
-3.68328167128e-05 -0.00866588564979 0
7.17155485131e-05 -0.00887623972916 0
-7.3915545649e-05 -0.00891120045106 0
7.06728232356e-05 -0.00891284252216 0
3.43960685728e-05 -0.00888045164728 0
-7.55204832543e-05 -0.00883757624382 0
-6.3726205859e-05 -0.00875168430097 0
3.19982481582e-05 -0.00875393502629 0
-3.90137350722e-05 -0.00888026925588 0
-4.07845960243e-06 -0.0089121025542 0
-2.49418228818e-06 -0.00882253156466 0
-2.34627785771e-06 -0.00882372932455 0
-5.24612470483e-05 -0.008837596092 0
4.68769535384e-05 -0.00883912240641 0
-8.0152442664e-05 -0.00893485218817 0
7.83515537385e-05 -0.00893624112658 0
-6.11473895479e-05 -0.00869834795218 0
5.98467963227e-05 -0.00875734294236 0
-3.97040257511e-05 -0.00875679884248 0
4.36680815676e-05 -0.00890897036178 0
-2.33115174989e-05 -0.00838383515102 0
4.48561178042e-05 -0.00879693594216 0
7.78647306435e-05 -0.00892832221712 0
-8.08137268331e-05 -0.00892639578911 0
-4.0536137516e-05 -0.00885848464586 0
2.27640902544e-05 -0.00844963975854 0
3.63379830323e-05 -0.00885984372351 0
-5.3010070039e-05 -0.00863482226228 0
1.83490810853e-05 -0.00892411446858 0
2.02025380131e-05 -0.00897812702897 0
6.873835982e-05 -0.00882738101228 0
-6.90367929078e-05 -0.00879399565795 0
7.80941657683e-05 -0.00891985362806 0
-8.09798856052e-05 -0.00891821289973 0
7.30800417089e-05 -0.0089312227417 0
-7.50792540595e-05 -0.00892968510457 0
3.77239039826e-05 -0.00853699076249 0
6.229942364e-05 -0.00886186447079 0
4.75397774193e-05 -0.00855555596032 0
1.08333269894e-07 -0.00813849957866 0
2.58856773667e-05 -0.00845724949093 0
-7.77997336613e-05 -0.0088774359624 0
-6.52826668176e-05 -0.00886345959071 0
-4.65818674981e-05 -0.00890175616974 0
4.25965616737e-05 -0.00890344981155 0
1.33882431021e-05 -0.00869604540784 0
4.8829783755e-05 -0.00862763451732 0
-1.13551845507e-05 -0.00818521948649 0
5.19202664387e-05 -0.00895946762274 0
-7.10602692848e-05 -0.00889828260689 0
6.74287995979e-05 -0.00889986253453 0
6.42635437768e-05 -0.00878225764248 0
-5.72292616235e-05 -0.0089553038144 0
-1.92905543036e-05 -0.0089793393815 0
7.56355909289e-05 -0.00886759369285 0
-4.85750917043e-05 -0.00891278606819 0
-4.91426264677e-05 -0.00864005163513 0
5.784640217e-05 -0.00877306983378 0
6.62394602573e-05 -0.00879778045004 0
5.38661203814e-05 -0.00870742569587 0
6.22743547552e-05 -0.00873931271901 0
-5.67164842215e-05 -0.00876995328247 0
-7.59583310708e-05 -0.00891285763512 0
-7.75769625602e-06 -0.00860996127822 0
-2.0916019058e-05 -0.00866710040234 0
-7.77193463851e-05 -0.00891047513442 0
7.4628175653e-05 -0.00891228587753 0
-5.14788901977e-05 -0.00890804342363 0
4.75983213983e-05 -0.00890979473737 0
4.51908166651e-05 -0.00856583408691 0
6.40118542166e-05 -0.00888184680754 0
6.07117440193e-05 -0.0088771873499 0
4.43926214206e-05 -0.00864036371255 0
-7.0211572483e-05 -0.00879762235934 0
-3.31981825924e-05 -0.00865886659034 0
-7.12163613315e-05 -0.0088830235635 0
-7.40970109438e-05 -0.00892150138115 0
7.08371239792e-05 -0.00892335902012 0
6.26301984711e-06 -0.00896716134223 0
-2.73085867502e-05 -0.00879662610001 0
-2.52578241296e-05 -0.0088276535307 0
-7.81721297044e-05 -0.00886632856382 0
3.35676577639e-05 -0.00866018743062 0
2.30603577191e-07 -0.0086129128519 0
-7.28936736385e-05 -0.00886708810448 0
4.65727195571e-05 -0.00879442438734 0
2.02161505766e-05 -0.00898247895961 0
3.13980499531e-05 -0.00874398340909 0
2.09089343008e-05 -0.00882893597173 0
-2.24222896358e-05 -0.00892045424713 0
-3.23944063521e-05 -0.00845791660127 0
2.43008991053e-05 -0.00879916897292 0
-1.70068144546e-05 -0.0085894123826 0
2.03054238292e-05 -0.00878092364062 0
-3.78168816649e-05 -0.0087456961669 0
-4.96610411106e-05 -0.00879420405447 0
-2.55039236815e-05 -0.00878192645631 0
2.04523263453e-07 -0.00839370954459 0
1.51356575851e-05 -0.00858815426406 0
-9.72142912881e-06 -0.00824524847298 0
8.15639180479e-05 -0.00892865988412 0
-8.42265659046e-05 -0.00892683521479 0
4.41764026146e-05 -0.00869689473646 0
5.12581244149e-05 -0.00863831571059 0
-7.35463859441e-06 -0.00897502356118 0
-5.63189938706e-05 -0.00863801005684 0
-4.91377562322e-05 -0.00869884254137 0
9.92269368108e-06 -0.00881327878173 0
-1.31974156503e-06 -0.00883717335151 0
-5.00998105667e-05 -0.00856993657364 0
-1.49353153341e-05 -0.00881442064235 0
-3.4924561217e-06 -0.00883845049642 0
7.60077693694e-05 -0.00890808903776 0
3.60392888862e-05 -0.00893233678342 0
-1.06832070184e-05 -0.00868654339231 0
2.65781130583e-05 -0.00824511943398 0
-3.81167131883e-06 -0.00852820414551 0
4.73949157643e-05 -0.00843470590628 0
-4.02925679322e-05 -0.008565880431 0
7.41682912175e-05 -0.00889763576165 0
7.78067865125e-05 -0.00892433217443 0
-8.0745157997e-05 -0.00892254855997 0
-6.30286818384e-05 -0.00887536990298 0
-8.31156556976e-05 -0.00891768740931 0
8.04475662683e-05 -0.00891920412113 0
9.35066995456e-06 -0.00886110745433 0
-6.04015195e-05 -0.00872622816162 0
1.29598601315e-05 -0.00897512949062 0
1.06522240614e-05 -0.00827868025665 0
3.2093759252e-05 -0.00873702701505 0
-2.39171967685e-05 -0.00887576323877 0
1.94979471665e-05 -0.00887725968362 0
-7.9242546186e-05 -0.00890431223401 0
4.75145035507e-05 -0.00868575338797 0
-4.32459026661e-07 -0.00872545010975 0
-4.66671455939e-05 -0.00869519690412 0
6.13808843448e-05 -0.00891827771905 0
-3.44604958877e-05 -0.00853338244024 0
-5.24189910463e-05 -0.00868494449278 0
3.61000090694e-07 -0.0085430877159 0
1.68861231521e-06 -0.00849973199754 0
-8.13450335831e-05 -0.00889652485885 0
-3.4524211365e-05 -0.00877271136028 0
2.85416026051e-05 -0.00840677949126 0
-1.22304574321e-05 -0.00877951227375 0
-4.01291769608e-05 -0.00872564266574 0
-3.11888151563e-07 -0.00876914772954 0
-2.98764895001e-05 -0.0088561702649 0
2.55007486072e-05 -0.0088575350433 0
-4.78617521023e-06 -0.00877010614136 0
1.61425442112e-05 -0.00866241348037 0
-3.17231660945e-05 -0.00838241467165 0
4.26758363105e-06 -0.00873746073987 0
8.07383163004e-05 -0.00891976366195 0
-8.3033326657e-05 -0.00891808990128 0
-1.86418875202e-05 -0.00898372923778 0
4.02118431139e-05 -0.00869945212113 0
7.86942887653e-05 -0.00889729690605 0
-2.43625563407e-05 -0.00835955342185 0
-5.42631600375e-05 -0.00847853554306 0
-7.26694422951e-05 -0.00891662022396 0
6.93546067013e-05 -0.0089183863053 0
-6.68319046985e-05 -0.00892393847566 0
6.33283470273e-05 -0.0089258958406 0
1.29636114915e-05 -0.00839468856783 0
-7.61504052311e-05 -0.00886977152619 0
-1.5676966625e-07 -0.00868905468908 0
7.24501455006e-05 -0.00892448792115 0
5.48146554856e-05 -0.00874414730231 0
1.18812476334e-05 -0.00865207167893 0
7.62766083744e-05 -0.0089058175931 0
-7.53541280612e-05 -0.00892762537077 0
7.21396268259e-05 -0.00892965248725 0
2.09731416804e-05 -0.00885295626811 0
5.99902866152e-05 -0.008831114849 0
-1.3231987283e-05 -0.00879565993447 0
-6.93841196166e-05 -0.00890566822108 0