# vtk DataFile Version 2.0
Generated with Solid Solver
ASCII
DATASET UNSTRUCTURED_GRID
POINTS 999 float 
0.2 4.3001 0.0
1.4 4.3001 0.0
1.4 4.8001 0.0
0.2 4.8001 0.0
1.4 4.32033264049 0.0
1.4 4.34261203886 0.0
1.4 4.36714525371 0.0
1.4 4.3941602782 0.0
1.4 4.42390817466 0.0
1.4 4.45666541084 0.0
1.4 4.49273640748 0.0
1.4 4.5324564007 0.0
1.4 4.57619451608 0.0
1.4 4.62435723872 0.0
1.4 4.67739217343 0.0
1.4 4.73579218095 0.0
1.33333333333 4.8001 0.0
1.26666666667 4.8001 0.0
1.2 4.8001 0.0
1.13333333333 4.8001 0.0
1.06666666667 4.8001 0.0
1.0 4.8001 0.0
0.933333333334 4.8001 0.0
0.866666666668 4.8001 0.0
0.800000000001 4.8001 0.0
0.733333333334 4.8001 0.0
0.666666666668 4.8001 0.0
0.600000000001 4.8001 0.0
0.533333333334 4.8001 0.0
0.466666666667 4.8001 0.0
0.4 4.8001 0.0
0.333333333334 4.8001 0.0
0.266666666667 4.8001 0.0
0.2 4.73579218095 0.0
0.2 4.67739217343 0.0
0.2 4.62435723872 0.0
0.2 4.57619451608 0.0
0.2 4.5324564007 0.0
0.2 4.49273640748 0.0
0.2 4.45666541084 0.0
0.2 4.42390817466 0.0
0.2 4.3941602782 0.0
0.2 4.36714525371 0.0
0.2 4.34261203886 0.0
0.2 4.32033264049 0.0
0.212131543907 4.28436329506 0.0
0.224675715302 4.26895348652 0.0
0.23762369102 4.25388141198 0.0
0.250966423879 4.23915760374 0.0
0.264694484585 4.22479246611 0.0
0.278798324214 4.21079599189 0.0
0.293267939266 4.19717810803 0.0
0.308093289028 4.18394826442 0.0
0.323263842145 4.17111585877 0.0
0.338769084145 4.15868978512 0.0
0.354597997314 4.14667887342 0.0
0.37073960121 4.13509145532 0.0
0.387182441982 4.12393575334 0.0
0.403915091795 4.11321952025 0.0
0.420925712897 4.10295033813 0.0
0.438202430937 4.09313537461 0.0
0.455733079095 4.08378154223 0.0
0.473505374364 4.07489539439 0.0
0.491506842655 4.06648316882 0.0
0.509724826085 4.0585507802 0.0
0.528146580414 4.05110377808 0.0
0.546759103951 4.04414741762 0.0
0.56554943677 4.03768654322 0.0
0.584504260001 4.03172573401 0.0
0.60361041518 4.0262691282 0.0
0.622854334779 4.02132060039 0.0
0.642222678753 4.01688358113 0.0
0.661701681839 4.01296122392 0.0
0.681277836375 4.00955624851 0.0
0.700937245817 4.00667107217 0.0
0.720666255912 4.00430769845 0.0
0.740450894784 4.00246780161 0.0
0.76027736978 4.00115266363 0.0
0.780131702711 4.00036321235 0.0
0.799999999998 4.0001 0.0
0.819868297285 4.00036321235 0.0
0.839722630216 4.00115266363 0.0
0.859549105212 4.00246780161 0.0
0.879333744085 4.00430769845 0.0
0.89906275418 4.00667107217 0.0
0.918722163621 4.00955624851 0.0
0.938298318157 4.01296122392 0.0
0.957777321244 4.01688358113 0.0
0.977145665218 4.02132060039 0.0
0.996389584817 4.0262691282 0.0
1.01549574 4.03172573401 0.0
1.03445056323 4.03768654322 0.0
1.05324089605 4.04414741762 0.0
1.07185341958 4.05110377808 0.0
1.09027517391 4.0585507802 0.0
1.10849315734 4.06648316882 0.0
1.12649462563 4.07489539439 0.0
1.1442669209 4.08378154222 0.0
1.16179756906 4.0931353746 0.0
1.1790742871 4.10295033813 0.0
1.1960849082 4.11321952024 0.0
1.21281755802 4.12393575334 0.0
1.22926039879 4.13509145532 0.0
1.24540200269 4.14667887342 0.0
1.26123091585 4.15868978512 0.0
1.27673615785 4.17111585877 0.0
1.29190671097 4.18394826442 0.0
1.30673206073 4.19717810803 0.0
1.32120167579 4.21079599189 0.0
1.33530551541 4.22479246611 0.0
1.34903357612 4.23915760374 0.0
1.36237630898 4.25388141198 0.0
1.3753242847 4.26895348652 0.0
1.38786845609 4.28436329506 0.0
1.05632730172 4.43535283906 0.0
0.549964048968 4.4381053958 0.0
0.806135520676 4.28696690218 0.0
0.60389578305 4.23589310371 0.0
1.22984770884 4.35828704125 0.0
0.3703382852 4.35933552752 0.0
0.995322815839 4.23075031136 0.0
0.728315816804 4.1516935937 0.0
0.872128173905 4.14798724072 0.0
1.14059401893 4.24808468684 0.0
0.461553191009 4.24691671009 0.0
0.784706775856 4.54331390922 0.0
0.398287125272 4.55455970538 0.0
1.20625306554 4.55844743514 0.0
0.624100842742 4.1340824436 0.0
0.5257453845 4.16321776279 0.0
0.978502430793 4.12998737058 0.0
1.07419209812 4.16335154482 0.0
0.364313698077 4.26187035763 0.0
1.23509538257 4.26191716733 0.0
0.68124123937 4.36794548972 0.0
1.31679378691 4.32522066749 0.0
0.283206213094 4.32522066749 0.0
0.791498533126 4.08977141721 0.0
0.931481076052 4.3552344917 0.0
0.96671906557 4.60288042839 0.0
0.684451667517 4.08578036752 0.0
0.618335406951 4.60196910993 0.0
0.450982331762 4.17196171732 0.0
0.915674266355 4.08505633851 0.0
1.14900051594 4.17199012964 0.0
1.30193709687 4.4232448133 0.0
0.29857466761 4.42326296922 0.0
1.05734787542 4.32500107617 0.0
0.539273225177 4.32762599628 0.0
0.709896798149 4.25231026287 0.0
0.895708916005 4.24434194389 0.0
0.813273511364 4.41345766235 0.0
0.559289631452 4.10740879113 0.0
1.04001407307 4.10791539633 0.0
0.801161810585 4.20656244955 0.0
0.665113819616 4.49566650186 0.0
0.852577362173 4.06621846388 0.0
0.39025672787 4.1993806298 0.0
1.20974450479 4.19938104599 0.0
0.921542541183 4.50288058719 0.0
1.14030889032 4.33947344809 0.0
1.15600477272 4.44318538305 0.0
0.435243219029 4.4501581257 0.0
0.462045157798 4.34164654286 0.0
0.735806812738 4.05982269746 0.0
1.30082934537 4.27303772796 0.0
0.299170654625 4.27303772796 0.0
0.533651712118 4.23775983853 0.0
0.666130919144 4.19162131559 0.0
1.0676097303 4.23689469382 0.0
1.08054433577 4.56040946155 0.0
0.506773767255 4.54078295079 0.0
0.626745312844 4.07634420826 0.0
0.933845304214 4.1857954732 0.0
0.293717639664 4.52685000185 0.0
0.31250502208 4.63936411351 0.0
1.3058164124 4.52664930624 0.0
1.29054387065 4.63812765963 0.0
0.973467966326 4.07451619478 0.0
0.487935413164 4.12597084015 0.0
0.461549079751 4.66346834982 0.0
1.11203248746 4.12603503889 0.0
1.14453515393 4.68127370303 0.0
0.840217564202 4.66401146633 0.0
0.585347033288 4.18049048534 0.0
0.619177396637 4.31737576306 0.0
0.331644410315 4.22472190462 0.0
1.26835558968 4.22472190462 0.0
1.01536156978 4.17497473052 0.0
0.809331033562 4.04575709122 0.0
0.982321540791 4.30947358971 0.0
0.725600576914 4.64509651799 0.0
0.812291456186 4.14152942492 0.0
0.335887692543 4.31428235669 0.0
1.26344844681 4.31527131907 0.0
1.23449730504 4.46967441524 0.0
1.34334172096 4.38049551957 0.0
0.256658279045 4.38049551957 0.0
0.741646926828 4.31797908527 0.0
0.674799084703 4.14183768522 0.0
1.18647435526 4.28465189749 0.0
0.360563250284 4.47106479569 0.0
0.873716483853 4.31355499203 0.0
0.418704489949 4.28656264283 0.0
0.492670911224 4.20441614809 0.0
0.403480880356 4.16556776931 0.0
1.19651541215 4.1655686246 0.0
0.728649253738 4.43724546491 0.0
1.00883674467 4.37684664879 0.0
1.11035034557 4.20671841276 0.0
0.261968539765 4.2881079512 0.0
1.33803146023 4.2881079512 0.0
0.74649980488 4.1069354354 0.0
0.927597725248 4.1328597079 0.0
0.892956618256 4.05129338913 0.0
0.659794281787 4.05461387326 0.0
0.587663534405 4.06996537006 0.0
0.942353209926 4.05445300973 0.0
1.01493747319 4.06986013719 0.0
0.613130017774 4.38879803882 0.0
0.449373501074 4.12887191978 0.0
0.514840228377 4.09735850006 0.0
0.497057592 4.38843092106 0.0
1.15061382426 4.12889293084 0.0
1.08514419473 4.09738328152 0.0
0.745617635771 4.20608957592 0.0
0.875234522129 4.57363036549 0.0
0.855262884783 4.2009970831 0.0
1.01126200032 4.50790064162 0.0
1.09391916408 4.38142408872 0.0
1.04436265455 4.68992000827 0.0
0.314320181089 4.36283968607 0.0
1.28649331902 4.36253720145 0.0
0.771211579291 4.03826862024 0.0
0.432259099658 4.21516002157 0.0
0.698583889427 4.04654353526 0.0
1.16802128371 4.213962881 0.0
1.09587629216 4.2837676659 0.0
1.35920470355 4.33176960471 0.0
0.240795296449 4.33176960471 0.0
0.504003580654 4.28325758118 0.0
0.579942709371 4.5093075073 0.0
0.875915224914 4.10325792528 0.0
0.426503136644 4.38227733008 0.0
0.57541416445 4.27875301522 0.0
0.683877978289 4.30671848113 0.0
0.888061695889 4.42143509246 0.0
1.33987712478 4.47369249103 0.0
0.26012287522 4.47369249103 0.0
0.801393572636 4.34570096582 0.0
0.558460082533 4.70006728209 0.0
1.1741923373 4.38642830101 0.0
0.83220012886 4.10289415912 0.0
1.02815069622 4.27563276509 0.0
0.948308583502 4.2631204454 0.0
0.846588933095 4.48344596945 0.0
1.25632767671 4.40990360053 0.0
0.343666800815 4.40995820652 0.0
0.97849585731 4.44541535602 0.0
1.10170977548 4.49017265998 0.0
0.662193131828 4.24319398492 0.0
0.400503668388 4.24391657105 0.0
1.20117145985 4.23640427377 0.0
0.350957892513 4.19306558019 0.0
1.24904210749 4.19306558019 0.0
0.771964652188 4.16415379403 0.0
0.932165148285 4.70246281402 0.0
0.373672364094 4.70831357765 0.0
0.760245937722 4.25919350779 0.0
0.848718469252 4.03277763075 0.0
1.23385612561 4.7109294747 0.0
0.846421485813 4.25575918421 0.0
0.651597058631 4.10553284014 0.0
0.650489852551 4.69648045504 0.0
0.58457834847 4.13885088261 0.0
0.48701309933 4.16369927013 0.0
0.708495738406 4.56366947756 0.0
1.11203398596 4.16388062515 0.0
0.54865558244 4.07760047869 0.0
1.05126102377 4.07744629471 0.0
0.300013757486 4.23769646442 0.0
1.29998624251 4.23769646442 0.0
0.9465032388 4.10228070354 0.0
0.708587583337 4.11656095907 0.0
0.973348904468 4.17047871864 0.0
0.628721855632 4.17048356945 0.0
0.380175010019 4.31531880077 0.0
0.662092932411 4.43409041267 0.0
1.05133526787 4.19731992007 0.0
0.528087045766 4.61837882187 0.0
1.22233124543 4.31031693908 0.0
1.19001193434 4.33783586668 0.0
0.853024099244 4.37054003492 0.0
0.542800296246 4.19834366905 0.0
0.247706318737 4.42749119247 0.0
1.35229368126 4.42749119247 0.0
0.599153768578 4.10463797005 0.0
1.01616570494 4.13737683178 0.0
0.744705786938 4.38079544575 0.0
1.31929001115 4.71212550052 0.0
0.777615355331 4.12623602511 0.0
0.265621610877 4.58485488866 0.0
1.33132411895 4.58141378639 0.0
0.532023338888 4.12884454388 0.0
1.0697792195 4.12751429251 0.0
0.286371037106 4.70520312914 0.0
0.497725885905 4.47663668256 0.0
0.46053455822 4.29097947599 0.0
0.433799237968 4.52139400991 0.0
0.388624781906 4.62604200004 0.0
0.554823673752 4.37961940232 0.0
1.1421595646 4.29328301431 0.0
1.14760043966 4.59165103139 0.0
1.21258698805 4.62830200685 0.0
1.16279096046 4.50802621409 0.0
0.995762647814 4.10018772517 0.0
0.456229040627 4.58966685246 0.0
0.707289391156 4.19030271873 0.0
0.763036833302 4.71795445535 0.0
[...]
POINT_DATA 999
VECTORS Displacement float
-1.064271413e-15 -0.0315 0
4.15217346372e-16 -0.0315 0
0.0 -0.0315 0
0.0 -0.0315 0
3.64914160751e-16 -0.0315 0
3.19181169004e-16 -0.0315 0
2.73153056999e-16 -0.0315 0
2.26025390633e-16 -0.0315 0
1.80480379067e-16 -0.0315 0
1.40711205448e-16 -0.0315 0
1.08468361849e-16 -0.0315 0
8.88776259628e-17 -0.0315 0
7.86050061101e-17 -0.0315 0
5.01189191197e-17 -0.0315 0
-9.9972166128e-17 -0.0315 0
-6.66137944061e-16 -0.0315 0
0.0 -0.0315 0
0.0 -0.0315 0
0.0 -0.0315 0
0.0 -0.0315 0
0.0 -0.0315 0
0.0 -0.0315 0
0.0 -0.0315 0
0.0 -0.0315 0
0.0 -0.0315 0
0.0 -0.0315 0
0.0 -0.0315 0
0.0 -0.0315 0
0.0 -0.0315 0
0.0 -0.0315 0
0.0 -0.0315 0
0.0 -0.0315 0
0.0 -0.0315 0
6.27134293477e-16 -0.0315 0
1.13754136022e-16 -0.0315 0
-2.11901784781e-16 -0.0315 0
-3.96732219085e-16 -0.0315 0
-5.22635201328e-16 -0.0315 0
-6.21042490009e-16 -0.0315 0
-7.02612916126e-16 -0.0315 0
-7.70605827719e-16 -0.0315 0
-8.3090686331e-16 -0.0315 0
-8.92702394754e-16 -0.0315 0
-9.49250651802e-16 -0.0315 0
-1.00244778006e-15 -0.0315 0
-1.11450600547e-15 -0.0315 0
-1.16743117814e-15 -0.0315 0
-1.21536624625e-15 -0.0315 0
-1.25891071463e-15 -0.0315 0
-1.29930183537e-15 -0.0315 0
-1.33261896645e-15 -0.0315 0
-1.36232047825e-15 -0.0315 0
-1.38577394933e-15 -0.0315 0
-1.40451003316e-15 -0.0315 0
-1.41589641232e-15 -0.0315 0
-1.41895201192e-15 -0.0315 0
-1.4177543826e-15 -0.0315 0
-1.41189455491e-15 -0.0315 0
-1.39963176156e-15 -0.0315 0
-1.38097088189e-15 -0.0315 0
-1.35749529076e-15 -0.0315 0
-1.3262384269e-15 -0.0315 0
-1.29156948273e-15 -0.0315 0
-1.24886785794e-15 -0.0315 0
-1.20252755931e-15 -0.0315 0
-1.14872708128e-15 -0.0315 0
-1.09105987499e-15 -0.0315 0
-1.03308328496e-15 -0.0315 0
-9.67299134303e-16 -0.0315 0
-9.00384005962e-16 -0.0315 0
-8.27191537851e-16 -0.0315 0
-7.49667076896e-16 -0.0315 0
-6.72187896118e-16 -0.0315 0
-5.92788734944e-16 -0.0315 0
-5.10841463227e-16 -0.0315 0
-4.29237221139e-16 -0.0315 0
-3.47450195607e-16 -0.0315 0
-2.62645661885e-16 -0.0315 0
-1.78466997623e-16 -0.0315 0
-9.75526442248e-17 -0.0315 0
-1.65111696071e-17 -0.0315 0
6.29907907309e-17 -0.0315 0
1.38590613926e-16 -0.0315 0
2.12740978796e-16 -0.0315 0
2.83497380124e-16 -0.0315 0
3.52132984428e-16 -0.0315 0
4.18275397767e-16 -0.0315 0
4.79514876768e-16 -0.0315 0
5.37381819876e-16 -0.0315 0
5.90085537892e-16 -0.0315 0
6.3453838957e-16 -0.0315 0
6.76637572918e-16 -0.0315 0
7.13394636242e-16 -0.0315 0
7.47564145887e-16 -0.0315 0
7.77484531696e-16 -0.0315 0
7.9794004133e-16 -0.0315 0
8.14884330668e-16 -0.0315 0
8.27045874137e-16 -0.0315 0
8.31990519233e-16 -0.0315 0
8.32686905659e-16 -0.0315 0
8.30872974146e-16 -0.0315 0
8.23900633699e-16 -0.0315 0
8.10717558543e-16 -0.0315 0
7.94375496719e-16 -0.0315 0
7.72220757794e-16 -0.0315 0
7.4775608583e-16 -0.0315 0
7.16878498293e-16 -0.0315 0
6.85451232544e-16 -0.0315 0
6.52234667697e-16 -0.0315 0
6.15067180766e-16 -0.0315 0
5.7554186962e-16 -0.0315 0
5.3515544619e-16 -0.0315 0
4.94709354745e-16 -0.0315 0
4.53034933902e-16 -0.0315 0
5.73838356906e-16 -0.0315 0
-1.18365319591e-15 -0.0315 0
-7.09961398023e-17 -0.0315 0
-8.84711568338e-16 -0.0315 0
3.63642652007e-16 -0.0315 0
-1.03787423442e-15 -0.0315 0
4.52181937196e-16 -0.0315 0
-4.26127549881e-16 -0.0315 0
1.12553417912e-16 -0.0315 0
5.49506783441e-16 -0.0315 0
-1.14405454273e-15 -0.0315 0
1.68311276679e-16 -0.0315 0
-6.07693745001e-16 -0.0315 0
-5.44383889666e-17 -0.0315 0
-8.01372678564e-16 -0.0315 0
-1.07817035729e-15 -0.0315 0
4.27468121976e-16 -0.0315 0
5.85955231561e-16 -0.0315 0
-1.17490460649e-15 -0.0315 0
5.20598879374e-16 -0.0315 0
-7.46665181481e-16 -0.0315 0
3.75123946129e-16 -0.0315 0
-1.0342510239e-15 -0.0315 0
-1.74437119365e-16 -0.0315 0
5.14728203695e-16 -0.0315 0
1.11916523603e-15 -0.0315 0
-5.85916901503e-16 -0.0315 0
-1.83985123046e-15 -0.0315 0
-1.22268692174e-15 -0.0315 0
2.71874440835e-16 -0.0315 0
6.55239209823e-16 -0.0315 0
2.21333094664e-16 -0.0315 0
-8.68859708518e-16 -0.0315 0
5.35308631997e-16 -0.0315 0
-1.07889435726e-15 -0.0315 0
-5.20940862567e-16 -0.0315 0
2.34142467029e-16 -0.0315 0
1.55897443646e-16 -0.0315 0
-1.0131750315e-15 -0.0315 0
5.86715744904e-16 -0.0315 0
-1.3558417959e-16 -0.0315 0
-1.23658217599e-15 -0.0315 0
6.5323545317e-17 -0.0315 0
-1.26561578711e-15 -0.0315 0
6.40490328825e-16 -0.0315 0
1.07585588205e-15 -0.0315 0
4.67122898261e-16 -0.0315 0
3.15440027678e-16 -0.0315 0
-9.90624301503e-16 -0.0315 0
-1.10402664237e-15 -0.0315 0
-3.84886137926e-16 -0.0315 0
4.88309612977e-16 -0.0315 0
-1.1548943414e-15 -0.0315 0
-1.04969972385e-15 -0.0315 0
-6.68524333141e-16 -0.0315 0
5.30830321048e-16 -0.0315 0
3.02842533427e-16 -0.0315 0
-1.03653646023e-15 -0.0315 0
-7.9982675472e-16 -0.0315 0
3.08352395236e-16 -0.0315 0
-6.55866152009e-16 -0.0315 0
-3.32152645336e-16 -0.0315 0
1.24272419935e-16 -0.0315 0
1.06942747925e-16 -0.0315 0
4.56045049754e-16 -0.0315 0
-1.19450040509e-15 -0.0315 0
-8.57991951963e-17 -0.0315 0
6.89080825269e-16 -0.0315 0
-6.04909726788e-16 -0.0315 0
2.36486743964e-15 -0.0315 0
-9.23031215311e-16 -0.0315 0
-9.12611179672e-16 -0.0315 0
-1.26116204527e-15 -0.0315 0
6.01890367548e-16 -0.0315 0
4.86363914113e-16 -0.0315 0
-8.89127043145e-17 -0.0315 0
5.01491333068e-16 -0.0315 0
-1.8868497686e-15 -0.0315 0
-1.03692592189e-16 -0.0315 0
-1.0821474424e-15 -0.0315 0
4.1391783573e-16 -0.0315 0
1.75911216842e-16 -0.0315 0
2.68324740432e-16 -0.0315 0
-9.07026559619e-16 -0.0315 0
-3.87491909005e-16 -0.0315 0
-6.24851262062e-16 -0.0315 0
4.95523898739e-16 -0.0315 0
-8.38530900575e-16 -0.0315 0
2.55328230481e-16 -0.0315 0
-1.13591887368e-15 -0.0315 0
-1.12883740485e-15 -0.0315 0
-1.3079872835e-15 -0.0315 0
7.05109253036e-16 -0.0315 0
-5.66592012522e-16 -0.0315 0
6.02634206819e-16 -0.0315 0
5.7918845456e-16 -0.0315 0
-1.11074561883e-15 -0.0315 0
4.47208318257e-16 -0.0315 0
-3.51200360879e-16 -0.0315 0
2.87696886422e-16 -0.0315 0
2.19627486576e-16 -0.0315 0
-6.81338603255e-16 -0.0315 0
-9.38837790094e-16 -0.0315 0
3.82472493115e-16 -0.0315 0
5.74813591316e-16 -0.0315 0
-1.04640162788e-15 -0.0315 0
-1.27751288164e-15 -0.0315 0
-1.15056774116e-15 -0.0315 0
-1.11497548165e-15 -0.0315 0
7.35677012555e-16 -0.0315 0
6.93338607501e-16 -0.0315 0
-3.61039300328e-16 -0.0315 0
1.48922213902e-15 -0.0315 0
6.67425600611e-17 -0.0315 0
7.50227976257e-16 -0.0315 0
5.03045143743e-16 -0.0315 0
-1.96355361945e-17 -0.0315 0
-9.8836550648e-16 -0.0315 0
3.22094545314e-16 -0.0315 0
-2.36926067063e-16 -0.0315 0
-1.20055833168e-15 -0.0315 0
-5.28872100754e-16 -0.0315 0
5.9917475458e-16 -0.0315 0
5.25420477134e-16 -0.0315 0
3.49929198052e-16 -0.0315 0
-9.94782733037e-16 -0.0315 0
-1.09714595024e-15 -0.0315 0
-1.31867826432e-15 -0.0315 0
1.31652043372e-16 -0.0315 0
-1.05685962387e-15 -0.0315 0
-9.85363404166e-16 -0.0315 0
-6.60667445877e-16 -0.0315 0
6.19946215498e-16 -0.0315 0
1.54896539163e-16 -0.0315 0
-7.36134582297e-16 -0.0315 0
-3.95186501571e-17 -0.0315 0
-6.55625989269e-16 -0.0315 0
3.78874220589e-16 -0.0315 0
-2.56054484467e-17 -0.0315 0
5.07083034776e-16 -0.0315 0
3.90429294607e-16 -0.0315 0
6.91967608033e-16 -0.0315 0
2.63080057852e-16 -0.0315 0
-9.37096318582e-16 -0.0315 0
7.68795623754e-16 -0.0315 0
3.66839978174e-16 -0.0315 0
-7.01502522521e-16 -0.0315 0
-1.19112892289e-15 -0.0315 0
5.69356741671e-16 -0.0315 0
-1.31676742706e-15 -0.0315 0
6.72581587868e-16 -0.0315 0
-2.56813052826e-16 -0.0315 0
8.99307075017e-16 -0.0315 0
2.05265173821e-16 -0.0315 0
-3.0091855113e-16 -0.0315 0
6.96309152693e-17 -0.0315 0
-1.37975699206e-16 -0.0315 0
7.44448879812e-17 -0.0315 0
-7.09590258936e-16 -0.0315 0
-2.08169995166e-15 -0.0315 0
-9.27773973123e-16 -0.0315 0
-1.16251302743e-15 -0.0315 0
-1.24788403145e-15 -0.0315 0
6.3259396912e-16 -0.0315 0
-1.06417651646e-15 -0.0315 0
6.52105417327e-16 -0.0315 0
-1.24413238811e-15 -0.0315 0
5.73694073656e-16 -0.0315 0
3.55026042352e-16 -0.0315 0
-4.96833646556e-16 -0.0315 0
4.02818708227e-16 -0.0315 0
-7.90719118051e-16 -0.0315 0
-1.09913505202e-15 -0.0315 0
-9.94504166317e-16 -0.0315 0
5.29819124082e-16 -0.0315 0
-9.60294986137e-16 -0.0315 0
4.41560241586e-16 -0.0315 0
4.23982961074e-16 -0.0315 0
2.87929444028e-16 -0.0315 0
-1.03061343305e-15 -0.0315 0
-8.10791557242e-16 -0.0315 0
1.98087662764e-16 -0.0315 0
-8.88601557739e-16 -0.0315 0
5.09686121751e-16 -0.0315 0
-3.84249039747e-16 -0.0315 0
-1.17652639386e-16 -0.0315 0
-2.33257622583e-16 -0.0315 0
-4.81303665047e-16 -0.0315 0
1.32000573364e-16 -0.0315 0
-1.08091907144e-15 -0.0315 0
6.1861624874e-16 -0.0315 0
4.98476100827e-17 -0.0315 0
-1.091190587e-15 -0.0315 0
-1.12374937079e-15 -0.0315 0
-8.09904844389e-16 -0.0315 0
-2.1396471742e-16 -0.0315 0
-1.1134814973e-15 -0.0315 0
5.04877410063e-16 -0.0315 0
-1.79438196894e-16 -0.0315 0
-3.33851821346e-16 -0.0315 0
1.46768362197e-16 -0.0315 0
4.88804683049e-16 -0.0315 0
-5.70319963755e-16 -0.0315 0
-5.12629441005e-16 -0.0315 0
-4.71009477183e-16 -0.0315 0
2.06213866568e-17 -0.0315 0
4.01637230865e-16 -0.0315 0
-1.32321114294e-15 -0.0315 0
1.8826518196e-16 -0.0315 0
7.52418538263e-16 -0.0315 0
1.62819481451e-16 -0.0315 0
-3.86540882652e-16 -0.0315 0
-1.18772856496e-15 -0.0315 0
5.22124633478e-16 -0.0315 0
-1.34223172355e-15 -0.0315 0
7.17898775037e-16 -0.0315 0
-1.20345810638e-15 -0.0315 0
-1.08251624605e-15 -0.0315 0
-2.68229600548e-16 -0.0315 0
-9.23143100588e-16 -0.0315 0
-1.23602799486e-15 -0.0315 0
5.88285886354e-16 -0.0315 0
-7.97000029999e-16 -0.0315 0
2.74017127023e-16 -0.0315 0
3.69542266341e-16 -0.0315 0
-1.19195295991e-15 -0.0315 0
5.18645419048e-16 -0.0315 0
1.38861438313e-17 -0.0315 0
-9.63809449033e-16 -0.0315 0
-1.05114240707e-15 -0.0315 0
4.01359028742e-16 -0.0315 0
-8.24859547373e-16 -0.0315 0
7.77205616966e-19 -0.0315 0
-5.35302371122e-16 -0.0315 0
4.44414603988e-17 -0.0315 0
-1.10748266604e-15 -0.0315 0
-4.75177351914e-16 -0.0315 0
-1.17414366444e-16 -0.0315 0
-5.49006378623e-17 -0.0315 0
5.07041981977e-16 -0.0315 0
5.49270541834e-16 -0.0315 0
-8.28529868519e-16 -0.0315 0
3.08080959937e-16 -0.0315 0
4.94176439805e-16 -0.0315 0
4.23966556945e-16 -0.0315 0
-1.07984451202e-15 -0.0315 0
4.13521112903e-16 -0.0315 0
1.18296115841e-15 -0.0315 0
-1.10443030351e-15 -0.0315 0
-9.55797299348e-16 -0.0315 0
5.50256608037e-16 -0.0315 0
-1.56205862416e-15 -0.0315 0
6.58436233398e-16 -0.0315 0
-1.24077786487e-15 -0.0315 0
7.4360061496e-16 -0.0315 0
-1.17430923787e-15 -0.0315 0
6.01821098578e-16 -0.0315 0
-6.41201048834e-16 -0.0315 0
1.30298304811e-16 -0.0315 0
-8.16198948782e-16 -0.0315 0
4.95930821517e-16 -0.0315 0
-1.01016263451e-15 -0.0315 0
6.93761206295e-16 -0.0315 0
1.62643240928e-16 -0.0315 0
6.75761070899e-16 -0.0315 0
2.9691438374e-16 -0.0315 0
-9.31446900716e-16 -0.0315 0
-1.25466135278e-15 -0.0315 0
1.65871882007e-16 -0.0315 0
6.60718404307e-16 -0.0315 0
-5.97555649221e-16 -0.0315 0
1.7281561241e-15 -0.0315 0
-4.02976983654e-16 -0.0315 0
5.61834091827e-16 -0.0315 0
-1.03279721788e-15 -0.0315 0
3.08802342547e-16 -0.0315 0
-9.66926056201e-16 -0.0315 0
8.47224291191e-17 -0.0315 0
-7.05365324253e-16 -0.0315 0
2.25387952329e-16 -0.0315 0
5.37390629511e-16 -0.0315 0
-6.15434842489e-16 -0.0315 0
-1.3950309467e-16 -0.0315 0
1.51237159393e-17 -0.0315 0
-1.07389749608e-15 -0.0315 0
-1.16469699704e-15 -0.0315 0
-1.32194618174e-15 -0.0315 0
6.62771626188e-16 -0.0315 0
9.80881735678e-17 -0.0315 0
2.57393753791e-16 -0.0315 0
-1.27347383005e-17 -0.0315 0
1.05168358477e-16 -0.0315 0
-1.12734435295e-15 -0.0315 0
4.65325202778e-16 -0.0315 0
5.41582702221e-16 -0.0315 0
-2.97504462284e-16 -0.0315 0
-2.99191717326e-17 -0.0315 0
4.40741616813e-16 -0.0315 0
-1.28310755721e-15 -0.0315 0
-7.29810328153e-16 -0.0315 0
5.55679506039e-16 -0.0315 0
5.22714509596e-16 -0.0315 0
4.39379697177e-16 -0.0315 0
4.66515322401e-16 -0.0315 0
-8.98366928726e-16 -0.0315 0
-8.57424084304e-16 -0.0315 0
-7.05680379874e-16 -0.0315 0
-8.14898949457e-16 -0.0315 0
-1.03593242824e-15 -0.0315 0
3.71708394052e-16 -0.0315 0
-1.29908618918e-15 -0.0315 0
6.29857766858e-16 -0.0315 0
2.10785133579e-16 -0.0315 0
5.10452519323e-16 -0.0315 0
5.57015190957e-16 -0.0315 0
3.5655676396e-16 -0.0315 0
-1.05225821416e-15 -0.0315 0
-4.23473390287e-16 -0.0315 0
-1.13494521137e-15 -0.0315 0
-1.05107950784e-15 -0.0315 0
3.963128145e-16 -0.0315 0
1.80422329775e-15 -0.0315 0
-1.12625776301e-15 -0.0315 0
-1.21383118566e-15 -0.0315 0
-1.09199265369e-15 -0.0315 0
2.0081866091e-16 -0.0315 0
3.79045832842e-16 -0.0315 0
-1.12715671457e-15 -0.0315 0
5.67340211997e-16 -0.0315 0
-8.86417367272e-16 -0.0315 0
-1.0271710592e-15 -0.0315 0
6.81693604294e-16 -0.0315 0
-2.16718991293e-15 -0.0315 0
-3.28576877293e-16 -0.0315 0
6.28169052405e-16 -0.0315 0
-2.49809054638e-16 -0.0315 0
-1.13371892831e-15 -0.0315 0
6.47976686986e-16 -0.0315 0
-1.08541695887e-15 -0.0315 0
7.07203244688e-16 -0.0315 0
-1.35212228056e-16 -0.0315 0
-6.48850176349e-18 -0.0315 0
-1.84640702672e-16 -0.0315 0
2.31242486017e-16 -0.0315 0
-8.51126040101e-16 -0.0315 0
-9.02796371202e-16 -0.0315 0
-7.67290427853e-16 -0.0315 0
-2.67105370248e-15 -0.0315 0
4.62806663546e-16 -0.0315 0
5.6685085933e-16 -0.0315 0
-1.2292737378e-15 -0.0315 0
-1.29261806092e-15 -0.0315 0
-5.39538143732e-16 -0.0315 0
7.56591047855e-16 -0.0315 0
7.77076957358e-16 -0.0315 0
2.12591664294e-16 -0.0315 0
5.01767891872e-16 -0.0315 0
-1.86339066391e-16 -0.0315 0
-3.08830765972e-16 -0.0315 0
2.78806333379e-16 -0.0315 0
-4.63727365364e-16 -0.0315 0
-6.07173985856e-16 -0.0315 0
4.01660507279e-16 -0.0315 0
3.04899779716e-16 -0.0315 0
-9.52239056005e-16 -0.0315 0
-1.21340384792e-15 -0.0315 0
-9.25753508687e-16 -0.0315 0
2.6883578342e-16 -0.0315 0
1.00082558034e-15 -0.0315 0
-8.99867534653e-16 -0.0315 0
1.81982413534e-17 -0.0315 0
8.75641557426e-18 -0.0315 0
3.81568558536e-16 -0.0315 0
-1.36421846443e-15 -0.0315 0
7.64762027229e-16 -0.0315 0
-1.0342362459e-15 -0.0315 0
3.2628529882e-16 -0.0315 0
5.56035637133e-16 -0.0315 0
-8.54824755877e-16 -0.0315 0
8.34553025199e-17 -0.0315 0
-3.59181019333e-16 -0.0315 0
-6.49564949424e-16 -0.0315 0
-5.9848302984e-16 -0.0315 0
-1.27178096874e-16 -0.0315 0
-1.00946880472e-15 -0.0315 0
-6.45646245068e-16 -0.0315 0
5.63571614731e-17 -0.0315 0
-1.86510835977e-16 -0.0315 0
-5.95630843466e-16 -0.0315 0
-1.07853960493e-15 -0.0315 0
-1.28245297651e-15 -0.0315 0
7.04864101289e-16 -0.0315 0
6.428848409e-16 -0.0315 0
7.20843580142e-17 -0.0315 0
-3.48267382327e-16 -0.0315 0
-9.95072595528e-16 -0.0315 0
2.0756941058e-16 -0.0315 0
-8.69402329384e-16 -0.0315 0
5.00682150575e-16 -0.0315 0
4.56548290173e-16 -0.0315 0
3.29699892434e-16 -0.0315 0
-2.62549299945e-16 -0.0315 0
2.56887674598e-16 -0.0315 0
-1.08350439301e-15 -0.0315 0
4.20206084434e-16 -0.0315 0
-1.1498773421e-15 -0.0315 0
4.81417431849e-16 -0.0315 0
1.30301125445e-16 -0.0315 0
-1.10961756161e-15 -0.0315 0
-8.72022893399e-16 -0.0315 0
7.53060443394e-17 -0.0315 0
4.91534924786e-16 -0.0315 0
4.23378216346e-16 -0.0315 0
3.63497698583e-16 -0.0315 0
-1.01356597174e-15 -0.0315 0
3.70350876258e-16 -0.0315 0
1.1057932001e-15 -0.0315 0
6.61427423804e-16 -0.0315 0
-1.14095741814e-15 -0.0315 0
-1.13470527978e-15 -0.0315 0
4.68575766858e-16 -0.0315 0
-1.21869305055e-15 -0.0315 0
-2.47684380178e-16 -0.0315 0
6.01736206815e-16 -0.0315 0
3.29845056298e-16 -0.0315 0
-3.17858675355e-16 -0.0315 0
-1.10907341439e-15 -0.0315 0
6.63890872965e-16 -0.0315 0
-1.27539519111e-15 -0.0315 0
6.65219890065e-16 -0.0315 0
9.28225590008e-16 -0.0315 0
-1.14231024981e-15 -0.0315 0
1.15356819759e-16 -0.0315 0
-1.25549482782e-15 -0.0315 0
5.79564274288e-16 -0.0315 0
-4.64369241699e-16 -0.0315 0
-1.32790610305e-15 -0.0315 0
7.76029397077e-16 -0.0315 0
-3.99950936737e-16 -0.0315 0
-6.43392906748e-16 -0.0315 0
-7.33281868388e-16 -0.0315 0
-1.17732099018e-15 -0.0315 0
-9.18640250796e-16 -0.0315 0
4.6862810317e-16 -0.0315 0
5.11257634699e-16 -0.0315 0
6.20473471726e-16 -0.0315 0
1.28921156366e-16 -0.0315 0
2.31857916768e-16 -0.0315 0
-8.68296721948e-16 -0.0315 0
-1.07907139903e-15 -0.0315 0
-1.213890412e-15 -0.0315 0
5.57236451367e-16 -0.0315 0
5.3191486165e-16 -0.0315 0
-1.27404097031e-15 -0.0315 0
6.24867465625e-16 -0.0315 0
-7.55605510635e-16 -0.0315 0
1.64003781163e-16 -0.0315 0
-8.96055410245e-16 -0.0315 0
8.14137019849e-16 -0.0315 0
3.83733877685e-16 -0.0315 0
8.35300062505e-16 -0.0315 0
5.7037316418e-16 -0.0315 0
1.01325801085e-16 -0.0315 0
-9.85551548982e-16 -0.0315 0
3.8803198947e-16 -0.0315 0
7.10141446705e-16 -0.0315 0
3.1388894202e-16 -0.0315 0
-9.8893264167e-16 -0.0315 0
-1.15831878673e-15 -0.0315 0
-1.11818992846e-15 -0.0315 0
3.7167616632e-16 -0.0315 0
-9.11753505253e-16 -0.0315 0
1.65667820324e-16 -0.0315 0
6.19933679162e-16 -0.0315 0
5.37735035038e-16 -0.0315 0
-5.41254341775e-16 -0.0315 0
5.52738769858e-16 -0.0315 0
-7.56397390798e-16 -0.0315 0
5.30674336147e-16 -0.0315 0
4.26812257835e-16 -0.0315 0
1.58960994944e-15 -0.0315 0
-9.79908480346e-16 -0.0315 0
-2.61600130148e-16 -0.0315 0
-1.56903311247e-15 -0.0315 0
-1.33851168595e-15 -0.0315 0
-1.00529962718e-15 -0.0315 0
-4.72406850453e-16 -0.0315 0
-8.10740102058e-16 -0.0315 0
-1.15310400285e-15 -0.0315 0
4.3353670121e-16 -0.0315 0
5.17369176748e-16 -0.0315 0
-9.66631123506e-16 -0.0315 0
3.30118929647e-16 -0.0315 0
1.82255499924e-16 -0.0315 0
-8.00516466807e-16 -0.0315 0
-2.06309179203e-16 -0.0315 0
-4.19929812908e-16 -0.0315 0
-1.24422306427e-15 -0.0315 0
2.96785010211e-16 -0.0315 0
5.74371764554e-16 -0.0315 0
-4.39562979824e-16 -0.0315 0
3.81366096937e-16 -0.0315 0
1.61694578296e-16 -0.0315 0
5.51862306104e-16 -0.0315 0
4.42515661466e-16 -0.0315 0
-1.16990002679e-15 -0.0315 0
2.93197035489e-16 -0.0315 0
7.23562264852e-16 -0.0315 0
-1.36293158585e-15 -0.0315 0
7.25808146862e-16 -0.0315 0
-1.48283060955e-16 -0.0315 0
5.27325093581e-16 -0.0315 0
1.34969763655e-15 -0.0315 0
2.01605091878e-16 -0.0315 0
8.55083657566e-16 -0.0315 0
-1.13973230793e-15 -0.0315 0
5.49684126025e-16 -0.0315 0
-1.00710113267e-15 -0.0315 0
8.22300144058e-16 -0.0315 0
-1.14142148322e-15 -0.0315 0
4.75649525245e-16 -0.0315 0
-2.55243260065e-16 -0.0315 0
5.67699349896e-16 -0.0315 0
1.14469873796e-16 -0.0315 0
-5.26371739937e-16 -0.0315 0
-5.45184841829e-16 -0.0315 0
-9.68888555957e-16 -0.0315 0
-4.11248181595e-17 -0.0315 0
-8.67974841467e-16 -0.0315 0
5.79848219722e-16 -0.0315 0
5.15735536481e-16 -0.0315 0
-1.05418370079e-15 -0.0315 0
-1.00539837435e-16 -0.0315 0
1.3216862118e-16 -0.0315 0
-6.79740540149e-16 -0.0315 0
-4.45420641212e-16 -0.0315 0
2.78715534978e-16 -0.0315 0
-6.92547925742e-16 -0.0315 0
-6.89143100001e-16 -0.0315 0
-9.10324659519e-16 -0.0315 0
-2.19545193711e-16 -0.0315 0
-7.22523536662e-16 -0.0315 0
-5.30008835823e-16 -0.0315 0
2.28303368957e-16 -0.0315 0
1.27175067286e-16 -0.0315 0
4.12736284958e-16 -0.0315 0
-1.11008350976e-15 -0.0315 0
5.1088109123e-16 -0.0315 0
6.02673670869e-16 -0.0315 0
3.69723681331e-16 -0.0315 0
-1.22707878199e-15 -0.0315 0
5.6314819443e-16 -0.0315 0
-1.24708265618e-15 -0.0315 0
-3.90498190597e-16 -0.0315 0
1.1895162707e-16 -0.0315 0
-1.87042485119e-16 -0.0315 0
-8.81286496317e-16 -0.0315 0
2.58358869705e-16 -0.0315 0
-1.18798940293e-15 -0.0315 0
5.24786695768e-16 -0.0315 0
6.93611646858e-16 -0.0315 0
-1.08391938228e-15 -0.0315 0
-1.2323247876e-15 -0.0315 0
1.1063956438e-15 -0.0315 0
-8.65816950742e-16 -0.0315 0
4.86427514738e-16 -0.0315 0
-9.51102866048e-17 -0.0315 0
2.89451757769e-16 -0.0315 0
-6.61413581815e-16 -0.0315 0
-4.79217455364e-17 -0.0315 0
-9.43876316364e-17 -0.0315 0
-1.33652059645e-16 -0.0315 0
-8.74992136376e-16 -0.0315 0
-1.19164379474e-15 -0.0315 0
4.89921973202e-16 -0.0315 0
5.49632278275e-17 -0.0315 0
5.34294233842e-16 -0.0315 0
4.53331073557e-16 -0.0315 0
-3.03991828148e-16 -0.0315 0
-1.0563961526e-15 -0.0315 0
4.08675053545e-16 -0.0315 0
7.08526449377e-16 -0.0315 0
-1.36490491329e-15 -0.0315 0
7.84462148264e-16 -0.0315 0
-1.10641355236e-15 -0.0315 0
3.81225172399e-16 -0.0315 0
-9.74654904178e-16 -0.0315 0
-1.19385980002e-15 -0.0315 0
6.20844323248e-16 -0.0315 0
5.08962410383e-16 -0.0315 0
-6.83953490743e-17 -0.0315 0
7.46138815955e-16 -0.0315 0
-1.23103615032e-15 -0.0315 0
5.97501413722e-16 -0.0315 0
7.06106824257e-17 -0.0315 0
-4.51825646408e-16 -0.0315 0
-1.20158884249e-15 -0.0315 0