# vtk DataFile Version 2.0
Generated with Solid Solver
ASCII
DATASET UNSTRUCTURED_GRID
POINTS 999 float 
0.2 4.3001 0.0
1.4 4.3001 0.0
1.4 4.8001 0.0
0.2 4.8001 0.0
1.4 4.32033264049 0.0
1.4 4.34261203886 0.0
1.4 4.36714525371 0.0
1.4 4.3941602782 0.0
1.4 4.42390817466 0.0
1.4 4.45666541084 0.0
1.4 4.49273640748 0.0
1.4 4.5324564007 0.0
1.4 4.57619451608 0.0
1.4 4.62435723872 0.0
1.4 4.67739217343 0.0
1.4 4.73579218095 0.0
1.33333333333 4.8001 0.0
1.26666666667 4.8001 0.0
1.2 4.8001 0.0
1.13333333333 4.8001 0.0
1.06666666667 4.8001 0.0
1.0 4.8001 0.0
0.933333333334 4.8001 0.0
0.866666666668 4.8001 0.0
0.800000000001 4.8001 0.0
0.733333333334 4.8001 0.0
0.666666666668 4.8001 0.0
0.600000000001 4.8001 0.0
0.533333333334 4.8001 0.0
0.466666666667 4.8001 0.0
0.4 4.8001 0.0
0.333333333334 4.8001 0.0
0.266666666667 4.8001 0.0
0.2 4.73579218095 0.0
0.2 4.67739217343 0.0
0.2 4.62435723872 0.0
0.2 4.57619451608 0.0
0.2 4.5324564007 0.0
0.2 4.49273640748 0.0
0.2 4.45666541084 0.0
0.2 4.42390817466 0.0
0.2 4.3941602782 0.0
0.2 4.36714525371 0.0
0.2 4.34261203886 0.0
0.2 4.32033264049 0.0
0.212131543907 4.28436329506 0.0
0.224675715302 4.26895348652 0.0
0.23762369102 4.25388141198 0.0
0.250966423879 4.23915760374 0.0
0.264694484585 4.22479246611 0.0
0.278798324214 4.21079599189 0.0
0.293267939266 4.19717810803 0.0
0.308093289028 4.18394826442 0.0
0.323263842145 4.17111585877 0.0
0.338769084145 4.15868978512 0.0
0.354597997314 4.14667887342 0.0
0.37073960121 4.13509145532 0.0
0.387182441982 4.12393575334 0.0
0.403915091795 4.11321952025 0.0
0.420925712897 4.10295033813 0.0
0.438202430937 4.09313537461 0.0
0.455733079095 4.08378154223 0.0
0.473505374364 4.07489539439 0.0
0.491506842655 4.06648316882 0.0
0.509724826085 4.0585507802 0.0
0.528146580414 4.05110377808 0.0
0.546759103951 4.04414741762 0.0
0.56554943677 4.03768654322 0.0
0.584504260001 4.03172573401 0.0
0.60361041518 4.0262691282 0.0
0.622854334779 4.02132060039 0.0
0.642222678753 4.01688358113 0.0
0.661701681839 4.01296122392 0.0
0.681277836375 4.00955624851 0.0
0.700937245817 4.00667107217 0.0
0.720666255912 4.00430769845 0.0
0.740450894784 4.00246780161 0.0
0.76027736978 4.00115266363 0.0
0.780131702711 4.00036321235 0.0
0.799999999998 4.0001 0.0
0.819868297285 4.00036321235 0.0
0.839722630216 4.00115266363 0.0
0.859549105212 4.00246780161 0.0
0.879333744085 4.00430769845 0.0
0.89906275418 4.00667107217 0.0
0.918722163621 4.00955624851 0.0
0.938298318157 4.01296122392 0.0
0.957777321244 4.01688358113 0.0
0.977145665218 4.02132060039 0.0
0.996389584817 4.0262691282 0.0
1.01549574 4.03172573401 0.0
1.03445056323 4.03768654322 0.0
1.05324089605 4.04414741762 0.0
1.07185341958 4.05110377808 0.0
1.09027517391 4.0585507802 0.0
1.10849315734 4.06648316882 0.0
1.12649462563 4.07489539439 0.0
1.1442669209 4.08378154222 0.0
1.16179756906 4.0931353746 0.0
1.1790742871 4.10295033813 0.0
1.1960849082 4.11321952024 0.0
1.21281755802 4.12393575334 0.0
1.22926039879 4.13509145532 0.0
1.24540200269 4.14667887342 0.0
1.26123091585 4.15868978512 0.0
1.27673615785 4.17111585877 0.0
1.29190671097 4.18394826442 0.0
1.30673206073 4.19717810803 0.0
1.32120167579 4.21079599189 0.0
1.33530551541 4.22479246611 0.0
1.34903357612 4.23915760374 0.0
1.36237630898 4.25388141198 0.0
1.3753242847 4.26895348652 0.0
1.38786845609 4.28436329506 0.0
1.05632730172 4.43535283906 0.0
0.549964048968 4.4381053958 0.0
0.806135520676 4.28696690218 0.0
0.60389578305 4.23589310371 0.0
1.22984770884 4.35828704125 0.0
0.3703382852 4.35933552752 0.0
0.995322815839 4.23075031136 0.0
0.728315816804 4.1516935937 0.0
0.872128173905 4.14798724072 0.0
1.14059401893 4.24808468684 0.0
0.461553191009 4.24691671009 0.0
0.784706775856 4.54331390922 0.0
0.398287125272 4.55455970538 0.0
1.20625306554 4.55844743514 0.0
0.624100842742 4.1340824436 0.0
0.5257453845 4.16321776279 0.0
0.978502430793 4.12998737058 0.0
1.07419209812 4.16335154482 0.0
0.364313698077 4.26187035763 0.0
1.23509538257 4.26191716733 0.0
0.68124123937 4.36794548972 0.0
1.31679378691 4.32522066749 0.0
0.283206213094 4.32522066749 0.0
0.791498533126 4.08977141721 0.0
0.931481076052 4.3552344917 0.0
0.96671906557 4.60288042839 0.0
0.684451667517 4.08578036752 0.0
0.618335406951 4.60196910993 0.0
0.450982331762 4.17196171732 0.0
0.915674266355 4.08505633851 0.0
1.14900051594 4.17199012964 0.0
1.30193709687 4.4232448133 0.0
0.29857466761 4.42326296922 0.0
1.05734787542 4.32500107617 0.0
0.539273225177 4.32762599628 0.0
0.709896798149 4.25231026287 0.0
0.895708916005 4.24434194389 0.0
0.813273511364 4.41345766235 0.0
0.559289631452 4.10740879113 0.0
1.04001407307 4.10791539633 0.0
0.801161810585 4.20656244955 0.0
0.665113819616 4.49566650186 0.0
0.852577362173 4.06621846388 0.0
0.39025672787 4.1993806298 0.0
1.20974450479 4.19938104599 0.0
0.921542541183 4.50288058719 0.0
1.14030889032 4.33947344809 0.0
1.15600477272 4.44318538305 0.0
0.435243219029 4.4501581257 0.0
0.462045157798 4.34164654286 0.0
0.735806812738 4.05982269746 0.0
1.30082934537 4.27303772796 0.0
0.299170654625 4.27303772796 0.0
0.533651712118 4.23775983853 0.0
0.666130919144 4.19162131559 0.0
1.0676097303 4.23689469382 0.0
1.08054433577 4.56040946155 0.0
0.506773767255 4.54078295079 0.0
0.626745312844 4.07634420826 0.0
0.933845304214 4.1857954732 0.0
0.293717639664 4.52685000185 0.0
0.31250502208 4.63936411351 0.0
1.3058164124 4.52664930624 0.0
1.29054387065 4.63812765963 0.0
0.973467966326 4.07451619478 0.0
0.487935413164 4.12597084015 0.0
0.461549079751 4.66346834982 0.0
1.11203248746 4.12603503889 0.0
1.14453515393 4.68127370303 0.0
0.840217564202 4.66401146633 0.0
0.585347033288 4.18049048534 0.0
0.619177396637 4.31737576306 0.0
0.331644410315 4.22472190462 0.0
1.26835558968 4.22472190462 0.0
1.01536156978 4.17497473052 0.0
0.809331033562 4.04575709122 0.0
0.982321540791 4.30947358971 0.0
0.725600576914 4.64509651799 0.0
0.812291456186 4.14152942492 0.0
0.335887692543 4.31428235669 0.0
1.26344844681 4.31527131907 0.0
1.23449730504 4.46967441524 0.0
1.34334172096 4.38049551957 0.0
0.256658279045 4.38049551957 0.0
0.741646926828 4.31797908527 0.0
0.674799084703 4.14183768522 0.0
1.18647435526 4.28465189749 0.0
0.360563250284 4.47106479569 0.0
0.873716483853 4.31355499203 0.0
0.418704489949 4.28656264283 0.0
0.492670911224 4.20441614809 0.0
0.403480880356 4.16556776931 0.0
1.19651541215 4.1655686246 0.0
0.728649253738 4.43724546491 0.0
1.00883674467 4.37684664879 0.0
1.11035034557 4.20671841276 0.0
0.261968539765 4.2881079512 0.0
1.33803146023 4.2881079512 0.0
0.74649980488 4.1069354354 0.0
0.927597725248 4.1328597079 0.0
0.892956618256 4.05129338913 0.0
0.659794281787 4.05461387326 0.0
0.587663534405 4.06996537006 0.0
0.942353209926 4.05445300973 0.0
1.01493747319 4.06986013719 0.0
0.613130017774 4.38879803882 0.0
0.449373501074 4.12887191978 0.0
0.514840228377 4.09735850006 0.0
0.497057592 4.38843092106 0.0
1.15061382426 4.12889293084 0.0
1.08514419473 4.09738328152 0.0
0.745617635771 4.20608957592 0.0
0.875234522129 4.57363036549 0.0
0.855262884783 4.2009970831 0.0
1.01126200032 4.50790064162 0.0
1.09391916408 4.38142408872 0.0
1.04436265455 4.68992000827 0.0
0.314320181089 4.36283968607 0.0
1.28649331902 4.36253720145 0.0
0.771211579291 4.03826862024 0.0
0.432259099658 4.21516002157 0.0
0.698583889427 4.04654353526 0.0
1.16802128371 4.213962881 0.0
1.09587629216 4.2837676659 0.0
1.35920470355 4.33176960471 0.0
0.240795296449 4.33176960471 0.0
0.504003580654 4.28325758118 0.0
0.579942709371 4.5093075073 0.0
0.875915224914 4.10325792528 0.0
0.426503136644 4.38227733008 0.0
0.57541416445 4.27875301522 0.0
0.683877978289 4.30671848113 0.0
0.888061695889 4.42143509246 0.0
1.33987712478 4.47369249103 0.0
0.26012287522 4.47369249103 0.0
0.801393572636 4.34570096582 0.0
0.558460082533 4.70006728209 0.0
1.1741923373 4.38642830101 0.0
0.83220012886 4.10289415912 0.0
1.02815069622 4.27563276509 0.0
0.948308583502 4.2631204454 0.0
0.846588933095 4.48344596945 0.0
1.25632767671 4.40990360053 0.0
0.343666800815 4.40995820652 0.0
0.97849585731 4.44541535602 0.0
1.10170977548 4.49017265998 0.0
0.662193131828 4.24319398492 0.0
0.400503668388 4.24391657105 0.0
1.20117145985 4.23640427377 0.0
0.350957892513 4.19306558019 0.0
1.24904210749 4.19306558019 0.0
0.771964652188 4.16415379403 0.0
0.932165148285 4.70246281402 0.0
0.373672364094 4.70831357765 0.0
0.760245937722 4.25919350779 0.0
0.848718469252 4.03277763075 0.0
1.23385612561 4.7109294747 0.0
0.846421485813 4.25575918421 0.0
0.651597058631 4.10553284014 0.0
0.650489852551 4.69648045504 0.0
0.58457834847 4.13885088261 0.0
0.48701309933 4.16369927013 0.0
0.708495738406 4.56366947756 0.0
1.11203398596 4.16388062515 0.0
0.54865558244 4.07760047869 0.0
1.05126102377 4.07744629471 0.0
0.300013757486 4.23769646442 0.0
1.29998624251 4.23769646442 0.0
0.9465032388 4.10228070354 0.0
0.708587583337 4.11656095907 0.0
0.973348904468 4.17047871864 0.0
0.628721855632 4.17048356945 0.0
0.380175010019 4.31531880077 0.0
0.662092932411 4.43409041267 0.0
1.05133526787 4.19731992007 0.0
0.528087045766 4.61837882187 0.0
1.22233124543 4.31031693908 0.0
1.19001193434 4.33783586668 0.0
0.853024099244 4.37054003492 0.0
0.542800296246 4.19834366905 0.0
0.247706318737 4.42749119247 0.0
1.35229368126 4.42749119247 0.0
0.599153768578 4.10463797005 0.0
1.01616570494 4.13737683178 0.0
0.744705786938 4.38079544575 0.0
1.31929001115 4.71212550052 0.0
0.777615355331 4.12623602511 0.0
0.265621610877 4.58485488866 0.0
1.33132411895 4.58141378639 0.0
0.532023338888 4.12884454388 0.0
1.0697792195 4.12751429251 0.0
0.286371037106 4.70520312914 0.0
0.497725885905 4.47663668256 0.0
0.46053455822 4.29097947599 0.0
0.433799237968 4.52139400991 0.0
0.388624781906 4.62604200004 0.0
0.554823673752 4.37961940232 0.0
1.1421595646 4.29328301431 0.0
1.14760043966 4.59165103139 0.0
1.21258698805 4.62830200685 0.0
1.16279096046 4.50802621409 0.0
0.995762647814 4.10018772517 0.0
0.456229040627 4.58966685246 0.0
0.707289391156 4.19030271873 0.0
0.763036833302 4.71795445535 0.0
[...]
POINT_DATA 999
VECTORS Displacement float
-0.000116057405263 -0.0133885947457 0
0.000112186213715 -0.0133911729351 0
0.0 -0.0135 0
0.0 -0.0135 0
0.000118078031782 -0.0133905964148 0
0.000123839920369 -0.0133897054927 0
0.00012897371254 -0.0133885236942 0
0.000133174001549 -0.0133875575882 0
0.000135318259795 -0.0133871330082 0
0.000136155855981 -0.0133875789344 0
0.000133752537266 -0.0133892042173 0
0.000127749860601 -0.0133923809721 0
0.000117560541035 -0.0133985545801 0
0.000101458845971 -0.0134087137459 0
7.87827484504e-05 -0.013425205296 0
4.69450764403e-05 -0.0134518418678 0
0.0 -0.0135 0
0.0 -0.0135 0
0.0 -0.0135 0
0.0 -0.0135 0
0.0 -0.0135 0
0.0 -0.0135 0
0.0 -0.0135 0
0.0 -0.0135 0
0.0 -0.0135 0
0.0 -0.0135 0
0.0 -0.0135 0
0.0 -0.0135 0
0.0 -0.0135 0
0.0 -0.0135 0
0.0 -0.0135 0
0.0 -0.0135 0
0.0 -0.0135 0
-4.71568953454e-05 -0.0134514642513 0
-7.94005418608e-05 -0.0134244599242 0
-0.000103353565281 -0.0134074643488 0
-0.000119328357256 -0.0133968174255 0
-0.000129751654525 -0.0133903686808 0
-0.000136128211731 -0.0133870108456 0
-0.00013883012046 -0.0133852974271 0
-0.000138243264487 -0.0133847657202 0
-0.000136327429938 -0.0133851181371 0
-0.000132336191094 -0.0133860251802 0
-0.000127394870723 -0.0133871655193 0
-0.000121804104287 -0.0133880302124 0
-0.000111334255584 -0.013385689555 0
-0.000106123988077 -0.0133825433633 0
-0.000100442646518 -0.013378893008 0
-9.41960428832e-05 -0.0133747228346 0
-8.74442551578e-05 -0.0133698584919 0
-8.03553527649e-05 -0.0133641762031 0
-7.28870802795e-05 -0.013357786829 0
-6.47884635289e-05 -0.0133506033807 0
-5.62411107743e-05 -0.0133421655334 0
-4.75651121661e-05 -0.0133330968185 0
-3.8438306528e-05 -0.0133228633069 0
-2.87386951678e-05 -0.0133115286855 0
-1.88926909184e-05 -0.0132988081759 0
-8.62255004344e-06 -0.0132848693426 0
1.94676208794e-06 -0.0132695413618 0
1.290570323e-05 -0.0132526019087 0
2.39685773744e-05 -0.0132339154154 0
3.56596089045e-05 -0.0132134692656 0
4.73347244514e-05 -0.0131908283022 0
5.9585570845e-05 -0.013165764873 0
7.16095343922e-05 -0.0131381466904 0
8.45980422628e-05 -0.0131075886157 0
9.71225468447e-05 -0.0130732933836 0
0.000110476547032 -0.0130351398127 0
0.000123662257114 -0.0129921389302 0
0.000138401505767 -0.0129425736714 0
0.000151569180623 -0.012885781016 0
0.000166911305418 -0.0128168849448 0
0.000178529375569 -0.0127344729554 0
0.000192539637115 -0.0126241286892 0
0.000196396306879 -0.0124522605984 0
0.000172057370905 -0.0122880179925 0
0.000127197013155 -0.012169123845 0
6.97751004223e-05 -0.0120999355454 0
-6.26293193856e-06 -0.0120721579155 0
-7.5432015037e-05 -0.0120980252311 0
-0.000138089264197 -0.0121704368501 0
-0.0001847162126 -0.0122877219195 0
-0.000207375046887 -0.0124531887457 0
-0.000199237754287 -0.0126295173277 0
-0.00018738189926 -0.0127360090026 0
-0.000171607384153 -0.0128184056618 0
-0.000158416166938 -0.0128869435165 0
-0.000145024269189 -0.0129438180002 0
-0.000130207148719 -0.0129933898818 0
-0.000116935725335 -0.013036517443 0
-0.000103414116899 -0.0130747391643 0
-9.07143817036e-05 -0.0131089048015 0
-7.77079548745e-05 -0.0131394120851 0
-6.56169809554e-05 -0.0131670907938 0
-5.33021860338e-05 -0.0131922304517 0
-4.15285920778e-05 -0.0132149617556 0
-2.97198110688e-05 -0.0132354947566 0
-1.85343777381e-05 -0.0132542535381 0
-7.45600592058e-06 -0.0132712574398 0
3.22954885357e-06 -0.0132866452269 0
1.36115815691e-05 -0.0133006431967 0
2.35680120888e-05 -0.0133134247803 0
3.33784399941e-05 -0.013324822467 0
4.26189554089e-05 -0.0133351185015 0
5.14108382412e-05 -0.0133442474259 0
6.00704696862e-05 -0.0133527390313 0
6.82778659279e-05 -0.0133599723468 0
7.5851809728e-05 -0.0133664109907 0
8.30467487207e-05 -0.0133721437679 0
8.99023337795e-05 -0.0133770588635 0
9.62528338713e-05 -0.0133812826179 0
0.000102038783339 -0.0133849892331 0
0.000107354023585 -0.0133881968582 0
0.000107764536673 -0.0132623883927 0
-0.000108370187136 -0.0132596864296 0
2.43153947646e-06 -0.0129372478705 0
-0.00010253831795 -0.013055657358 0
0.000126393028453 -0.0133329170564 0
-0.000129685564693 -0.0133314442165 0
9.73051937222e-05 -0.0130514516638 0
-6.38847990258e-05 -0.0127176183782 0
5.77431323839e-05 -0.012711990686 0
9.9182031126e-05 -0.0132442216552 0
-0.000103122706603 -0.013240270584 0
-7.05141024813e-06 -0.0132794173662 0
-0.000108979224053 -0.0133887765959 0
0.000106618224881 -0.0133924848369 0
-6.22332962573e-05 -0.0129533745645 0
-6.27871380771e-05 -0.0131467289274 0
5.20823026177e-05 -0.0129592751421 0
5.78067759357e-05 -0.013147991315 0
-0.000104802588981 -0.0133200235444 0
0.000100642334914 -0.0133214321992 0
-7.23834589864e-05 -0.0131070769829 0
0.000120027613872 -0.0133662493031 0
-0.000123662716869 -0.0133641840168 0
-1.099993762e-05 -0.0124405053566 0
7.65446436152e-05 -0.0131016776194 0
5.2159517803e-05 -0.0133578535364 0
-3.7019281515e-05 -0.012742317354 0
-5.77012090327e-05 -0.013360018313 0
-6.00651650926e-05 -0.0132409443893 0
2.98109011863e-05 -0.0127440273971 0
5.51255581604e-05 -0.0132425286005 0
0.000133459886822 -0.0133728412811 0
-0.000136248189464 -0.0133710215681 0
0.000113940354719 -0.0131907240369 0
-0.000117793403841 -0.0131944241813 0
-6.90753055577e-05 -0.0129262390166 0
6.85853851104e-05 -0.0129210463993 0
6.77270442459e-06 -0.0131280935335 0
-1.47947967351e-05 -0.0130857449164 0
9.50970570722e-06 -0.0130855798969 0
-1.71703425954e-06 -0.0127779094774 0
-6.2356328496e-05 -0.0132525823419 0
1.91800679809e-05 -0.0124505559014 0
-7.48610747825e-05 -0.0132976448567 0
7.0166490267e-05 -0.0132994422906 0
5.3977337291e-05 -0.0132556257369 0
0.000121549121065 -0.0132706718204 0
0.000122655692911 -0.0133235385143 0
-0.000125676958827 -0.0133295846504 0
-0.000124903558519 -0.0132682220152 0
-2.13045241577e-05 -0.0124792672603 0
0.00010374900581 -0.0133575058505 0
-0.000107803337763 -0.0133554234367 0
-0.00010369353788 -0.0131559272399 0
-8.84838442432e-05 -0.012907441786 0
9.88936438856e-05 -0.0131586745815 0
8.83384138514e-05 -0.0133576070348 0
-9.72756231088e-05 -0.0133487562218 0
7.89860928726e-06 -0.0129315027485 0
8.26673070277e-05 -0.0129018814774 0
-0.000125492301621 -0.0133952874863 0
-8.62145252803e-05 -0.0134331883318 0
0.000123624286352 -0.013396632933 0
8.61260364201e-05 -0.0134334918785 0
-1.76355372479e-05 -0.0129331171296 0
-2.37820620783e-05 -0.013195977044 0
-6.38904262146e-05 -0.0134307257482 0
1.83655254497e-05 -0.013197428076 0
5.68182301444e-05 -0.0134414671074 0
9.97840498013e-06 -0.0133950198698 0
-8.46828261457e-05 -0.0130536605414 0
-0.000102397512945 -0.0131059556094 0
-8.7243056711e-05 -0.0133376220157 0
8.28083755293e-05 -0.0133396302181 0
7.6190579629e-05 -0.0130535282317 0
-4.254673959e-06 -0.0122637138715 0
9.93015655069e-05 -0.0131013380668 0
-2.12397496036e-05 -0.0133806121504 0
9.31579234239e-06 -0.0126137115399 0
-0.00012138920648 -0.0133412659409 0
0.000117934943401 -0.0133428907729 0
0.000127311044884 -0.0133657245864 0
0.00013101793813 -0.0133775185604 0
-0.000134229361795 -0.0133754406534 0
-4.2567862403e-05 -0.013004073835 0
-7.58717974268e-05 -0.0128305290883 0
0.000110325648034 -0.0132907290075 0
-0.000130151086746 -0.0133663631116 0
4.96114414841e-05 -0.0130066290082 0
-0.000115005174443 -0.0132856733372 0
-8.56672138032e-05 -0.0131979548866 0
-5.25876128353e-05 -0.0132856815046 0
4.76107391181e-05 -0.0132874210781 0
-3.98318686963e-05 -0.0131687726039 0
0.00010243416469 -0.0131843991194 0
8.1928998469e-05 -0.0132033770589 0
-0.000112729903751 -0.0133704095317 0
0.00010878084357 -0.0133726423882 0
-4.75079506892e-05 -0.0125713289402 0
6.62808870647e-05 -0.012828416898 0
-1.18985178497e-05 -0.0126099515081 0
3.47622506771e-05 -0.0128242929352 0
3.39165796422e-05 -0.0130282679331 0
-4.3193922997e-05 -0.0128332499854 0
-4.06238330665e-05 -0.0130352200001 0
-9.73686313667e-05 -0.0131773689156 0
-2.37022695991e-05 -0.0132411686764 0
5.58833277004e-06 -0.0131587490906 0
-0.00012294785123 -0.0132635785559 0
1.83598702096e-05 -0.0132427653091 0
-1.14459741889e-05 -0.0131600429874 0
-4.89073585115e-05 -0.012805778135 0
2.77059188801e-05 -0.0133150127925 0
4.5631532689e-05 -0.0127969465475 0
8.35289819173e-05 -0.0132942948074 0
0.000118862249869 -0.0132543299223 0
4.37273074562e-05 -0.0134344748773 0
-0.000131055192971 -0.0133566588598 0
0.000127728537996 -0.0133587440402 0
5.54085494446e-06 -0.0122686771792 0
-8.62704039071e-05 -0.0132632796168 0
2.33414438254e-05 -0.0126492318134 0
8.09165056941e-05 -0.0132649962088 0
0.000111175195746 -0.0132090327735 0
0.0001215781275 -0.0133796257953 0
-0.000125196593726 -0.0133773439106 0
-0.00011517742694 -0.0132077812715 0
-8.74073445787e-05 -0.0132987065367 0
5.04578041737e-05 -0.0126273302209 0
-0.000129529789328 -0.0133070410923 0
-0.000110920021124 -0.013124659923 0
-7.79581464168e-05 -0.013029571449 0
4.80852442781e-05 -0.0131554971531 0
0.000133255001095 -0.0133875521293 0
-0.000135788387688 -0.0133857312586 0
-5.43521450991e-07 -0.0130324099455 0
-4.03243210047e-05 -0.0134400958091 0
0.000126448685473 -0.0133104569687 0
2.68669565706e-05 -0.0125135924809 0
0.000106895740941 -0.0131280660004 0
9.00482961304e-05 -0.013013152935 0
2.22763639396e-05 -0.0132169277994 0
0.000131365709207 -0.0133560928927 0
-0.000134219679564 -0.0133545608802 0
8.40452816937e-05 -0.0132247816942 0
0.000107913557061 -0.0133218633101 0
-9.14502681183e-05 -0.0129754076725 0
-9.85635760557e-05 -0.0132930384473 0
9.06934583771e-05 -0.0132952675231 0
-7.00366945426e-05 -0.0133253524433 0
6.53463862678e-05 -0.0133273059248 0
-2.954495463e-05 -0.0126843888296 0
2.39207305575e-05 -0.0134320105696 0
-4.92785308785e-05 -0.0134607462087 0
-3.4113477804e-05 -0.0128973354762 0
-3.41187480357e-05 -0.0123231747747 0
4.76078665371e-05 -0.0134625462327 0
3.49826005011e-05 -0.0128954990543 0
-4.50963092427e-05 -0.0128658494508 0
-2.85670718044e-05 -0.0134290363146 0
-5.51413158415e-05 -0.0130411261504 0
-5.76237882368e-05 -0.0131991680714 0
-3.57317878693e-05 -0.0133080599334 0
5.2748912988e-05 -0.0131995934008 0
2.8990038742e-05 -0.0131044342092 0
-3.51512427779e-05 -0.0131055579749 0
-9.32630084463e-05 -0.0133544123283 0
8.89413774657e-05 -0.0133565333073 0
3.53721706787e-05 -0.0128609695396 0
-6.34742630685e-05 -0.0126993370841 0
7.94810135926e-05 -0.0129694933809 0
-8.4972876739e-05 -0.0129642154755 0
-0.000121873763414 -0.0133172886786 0
-7.200337396e-05 -0.0131916014786 0
8.33951364445e-05 -0.0131218348874 0
-7.17159828131e-05 -0.0133920982263 0
0.000116981117083 -0.0133195274043 0
0.000122541662692 -0.0133050709248 0
3.23605895251e-05 -0.0130779937073 0
-8.79996510016e-05 -0.0131295908487 0
-0.000137936117165 -0.0133809383249 0
0.000135078501848 -0.0133829425538 0
-2.33111673656e-05 -0.0130040129802 0
4.81093305401e-05 -0.013043710403 0
-3.57008527028e-05 -0.0130923455877 0
5.07110739647e-05 -0.0134615018038 0
-2.4450491603e-05 -0.0125737481156 0
-0.000111826179279 -0.0134113188299 0
0.000111102158324 -0.0134116608265 0
-3.32593992658e-05 -0.0131335563982 0
2.59512918209e-05 -0.0131374769045 0
-5.43130129315e-05 -0.0134587020058 0
-0.000112661479431 -0.0133132300142 0
-0.000116730958653 -0.0132523082658 0
-0.000113443627852 -0.0133635074566 0
-8.54835127217e-05 -0.0134227165444 0
-0.000113748620847 -0.0132147640651 0
0.000113436981569 -0.0132567469212 0
8.98936715323e-05 -0.0133947733363 0
8.36662185962e-05 -0.0134244775089 0
0.000113975465008 -0.0133566705562 0
1.30377649554e-05 -0.0129932146715 0
-9.11891336117e-05 -0.0133922085699 0
-7.482195588e-05 -0.0128297557548 0
-6.46129617212e-06 -0.0134395022681 0
-9.03944837413e-06 -0.0132020325587 0
7.8096686128e-05 -0.0130400772406 0
-3.04368009685e-05 -0.013270321202 0
6.93476410383e-05 -0.012821864377 0
2.52108749473e-05 -0.0132720236945 0
0.000130579346496 -0.0133799397247 0
2.81646713945e-05 -0.0124256379877 0
-0.000102831349148 -0.0133404166755 0
9.86600405788e-05 -0.0133423893914 0
-5.5147494159e-05 -0.0133098092314 0
5.02423315227e-05 -0.0133116793976 0
-8.99383642529e-05 -0.0132372220274 0
-0.00012706148122 -0.0133040947354 0
-2.19672231102e-05 -0.0124025021438 0
-3.97318741437e-05 -0.0132545011342 0
-8.95897848507e-05 -0.0133170751208 0
8.5168171968e-05 -0.0133188931939 0
-0.000133043632224 -0.0133773307728 0
0.000128674108498 -0.0133416064669 0
9.03351600977e-05 -0.0129752809287 0
-0.000102378613188 -0.0133664743854 0
9.82192824067e-05 -0.0133686940254 0
6.4319759618e-05 -0.013406746877 0
-0.000130843035849 -0.0133396394312 0
-0.000118316902222 -0.0133787126504 0
0.000114501708795 -0.0133810624051 0
5.70808671526e-05 -0.0129466824577 0
3.43901536627e-05 -0.0127180376317 0
-0.000108535848219 -0.0134083630227 0
0.000106674514356 -0.0134094439372 0
-0.000102051340501 -0.0132014457878 0
-4.26336408813e-05 -0.0126244140244 0
3.82791580714e-07 -0.0128440416938 0
1.11837643397e-05 -0.0123966128465 0
0.000118391573692 -0.0132342254029 0
9.805312073e-05 -0.0132041906311 0
-0.000100173310785 -0.013051766232 0
-6.77143447607e-05 -0.0127183250868 0
-6.00394488634e-05 -0.0129477238887 0
0.000117198664276 -0.0132973373695 0
-0.000119429960094 -0.0133550212427 0
0.00011568449982 -0.0133569895986 0
5.62407173254e-05 -0.013304732584 0
-0.000121958297431 -0.0132341244191 0
-0.000102003000512 -0.0130929365515 0
5.23796461293e-05 -0.0130952949024 0
-6.30801714328e-05 -0.0133045018192 0
-6.41083982844e-06 -0.0133565304625 0
-1.60051622769e-06 -0.0132088534069 0
-3.99932192814e-06 -0.0132103329535 0
-8.39530456729e-05 -0.013233823968 0
7.67358292853e-05 -0.0132358260736 0
-0.000130275520428 -0.0133937993552 0
0.000128193353639 -0.0133954524804 0
-9.71654750113e-05 -0.0130057971324 0
9.75275203583e-05 -0.0131019347294 0
-6.27816811679e-05 -0.0131004244991 0
7.1353874545e-05 -0.0133511840907 0
-4.36505995703e-05 -0.0124679513063 0
7.31974909815e-05 -0.0131684222763 0
0.000127455896937 -0.0133823873625 0
-0.000130869418748 -0.013380094861 0
-6.43335105172e-05 -0.0132682032557 0
3.05611007547e-05 -0.0125951122456 0
5.94707074596e-05 -0.0132698631544 0
-8.30823937376e-05 -0.0129039614645 0
3.00490377546e-05 -0.0133760729249 0
3.30047450517e-05 -0.0134642112773 0
0.000112215071271 -0.0132174292222 0
-0.000111152263557 -0.0131630890974 0
0.000127821539286 -0.0133685139342 0
-0.000131156073877 -0.0133665506812 0
0.000119527059041 -0.0133872717422 0
-0.000121986849433 -0.0133851628404 0
5.78524473812e-05 -0.012739816723 0
0.000101958233551 -0.0132733009636 0
7.91981787787e-05 -0.0127578522677 0
3.30445246926e-06 -0.0121738047618 0
3.81932576602e-05 -0.0126225533918 0
-0.000126036323446 -0.0132995454223 0
-0.000105116159786 -0.0132764470379 0
-7.43080946804e-05 -0.0133394880028 0
6.96953976187e-05 -0.0133415312853 0
2.21645681754e-05 -0.0130050357989 0
7.80555622175e-05 -0.0128921279898 0
-2.63200021301e-05 -0.0122259101567 0
8.49299221857e-05 -0.0134335676425 0
-0.000114701203931 -0.0133337500559 0
0.000110371915968 -0.0133356870038 0
0.000104714535925 -0.0131437328448 0
-9.31366270769e-05 -0.013427138269 0
-3.13757979091e-05 -0.0134662485734 0
0.000123655324529 -0.0132829939147 0
-7.8785621002e-05 -0.0133575144196 0
-7.68309723905e-05 -0.0129085609688 0
9.42061893278e-05 -0.0131290888153 0
0.000108143318308 -0.0131684044123 0
8.74322255078e-05 -0.013019847961 0
0.000101207621394 -0.0130732370282 0
-9.10291657935e-05 -0.0131243047496 0
-0.000123305619681 -0.0133575777035 0
-1.04445725764e-05 -0.0128544123713 0
-3.18840856682e-05 -0.0129509662131 0
-0.000125733958266 -0.0133538114251 0
0.000122151850932 -0.0133560912579 0
-8.23834228351e-05 -0.0133498446124 0
7.78914216197e-05 -0.0133519523948 0
7.07786179792e-05 -0.0127903851398 0
0.000104775257573 -0.0133061090118 0
9.91791339722e-05 -0.0132990933301 0
7.13051556826e-05 -0.0129090807261 0
-0.000112967586485 -0.0131684825842 0
-5.21220145496e-05 -0.0129445612136 0
-0.000114941082961 -0.0133086413811 0
-0.000119730591363 -0.0133720165311 0
0.000115957549898 -0.0133742363145 0
1.02768523717e-05 -0.0134463710863 0
-4.25244409995e-05 -0.0131661012556 0
-3.91519693401e-05 -0.013217336777 0
-0.000126508289397 -0.0132813041767 0
5.42714212204e-05 -0.0129465221064 0
8.16127081099e-07 -0.0128591956617 0
-0.000118028565704 -0.0132826654753 0
7.61926959482e-05 -0.0131622944376 0
3.30359632913e-05 -0.013471313746 0
5.43787992002e-05 -0.0130786506397 0
3.4204754323e-05 -0.0132189477931 0
-3.6265581348e-05 -0.0133701295741 0
-4.61329178238e-05 -0.0126233064105 0
3.9809634884e-05 -0.0131698792782 0
-2.58199508063e-05 -0.0128332800907 0
3.60575206793e-05 -0.0131399997482 0
-6.22903833165e-05 -0.0130811792923 0
-7.92425667188e-05 -0.0131623105219 0
-4.20573773199e-05 -0.0131412606126 0
7.07564969838e-07 -0.012528059169 0
2.45200244316e-05 -0.0128311510891 0
-8.45715191289e-06 -0.0123130602651 0
0.000133496855657 -0.0133829604789 0
-0.000136581859075 -0.0133807897489 0
7.54734423825e-05 -0.0129999952699 0
8.68713245039e-05 -0.0129010228467 0
-1.19091499457e-05 -0.0134592163968 0
-9.21266731739e-05 -0.0129004695023 0
-8.08074117163e-05 -0.013003063403 0
1.89085089077e-05 -0.0131935573051 0
3.42631542595e-07 -0.0132330295441 0
-7.66542744525e-05 -0.0127974572171 0
-2.47087416362e-05 -0.0131949689119 0
-5.91230041781e-06 -0.0132346003527 0
0.000124299827841 -0.0133493802815 0
5.88886816164e-05 -0.0133893808787 0
-1.63933515922e-05 -0.012989695962 0
5.58454444454e-05 -0.0122836590339 0
-6.4369999839e-06 -0.0127155244176 0
7.67920648527e-05 -0.0125373300536 0
-6.10100303856e-05 -0.0127854937964 0
0.000121383572959 -0.0133320718858 0
0.000127358022792 -0.0133758508222 0
-0.000130757440962 -0.0133737220615 0
-0.000102077058788 -0.0132963177824 0
-0.000134740992548 -0.0133656499674 0
0.000131657603761 -0.0133674687693 0
1.55331518879e-05 -0.0132733494777 0
-9.6316283206e-05 -0.0130510110526 0
2.11761467571e-05 -0.013459355389 0
5.3195935574e-06 -0.0123509457338 0
5.23593640771e-05 -0.0130711740926 0
-3.69386331407e-05 -0.0132966688338 0
3.18184234834e-05 -0.0132984848102 0
-0.0001282646319 -0.0133436525203 0
7.68181775045e-05 -0.0129872096494 0
-5.40687361622e-07 -0.0130476304193 0
-7.37117594e-05 -0.0129989469207 0
0.0001003240775 -0.0133662130567 0
-5.18145315799e-05 -0.0127428377387 0
-8.30893120082e-05 -0.0129858315181 0
2.74174145792e-06 -0.0127400046849 0
3.33125367207e-06 -0.0126912985928 0
-0.000131826469772 -0.0133308240158 0
-5.52193740138e-05 -0.013129265616 0
3.81957690614e-05 -0.0125400011024 0
-1.92352005704e-05 -0.0131405053029 0
-6.38843419979e-05 -0.0130526177673 0
1.94008568069e-06 -0.0131205030233 0
-4.67637884914e-05 -0.0132643779015 0
4.16982552325e-05 -0.0132660458101 0
-7.86474181364e-06 -0.0131217180192 0
2.64834579436e-05 -0.0129506001923 0
-3.90957124469e-05 -0.012500440787 0
9.41287468809e-06 -0.0130678436098 0
0.000132097473484 -0.0133684297049 0
-0.000134750018931 -0.0133662389478 0
-3.03402097002e-05 -0.0134734240783 0
6.5462586295e-05 -0.013005659973 0
0.000128736973863 -0.0133316006735 0
-3.02271553698e-05 -0.0124740264175 0
-8.51018595955e-05 -0.0126182119084 0
-0.000117368224306 -0.0133639621398 0
0.000113529692461 -0.0133660787246 0
-0.000107717949722 -0.0133760496479 0
0.0001036623547 -0.0133783850881 0
1.17553819685e-05 -0.0125050562139 0
-0.000123080561819 -0.013286879062 0
1.98117389415e-06 -0.0129871206935 0
0.000118481409847 -0.0133762581479 0
8.93229199005e-05 -0.0130799701682 0
1.96335468695e-05 -0.0129255849894 0
0.000124835662934 -0.0133454983971 0
-0.000121812185064 -0.0133821417501 0
0.000118091026754 -0.0133845535076 0
3.44276308039e-05 -0.0132600075196 0
9.79201475515e-05 -0.0132238422081 0
-1.93385121491e-05 -0.0131644500304 0
-0.000111933044618 -0.0133459164225 0
0.000107966493324 -0.0133478673362 0
-8.69662995994e-05 -0.0132853713514 0
-2.65739774038e-05 -0.0127524174994 0
8.11087403749e-05 -0.0132879812753 0
8.4908366739e-05 -0.0129605739049 0
8.45074732545e-07 -0.0123653817437 0
-0.000120668770685 -0.0132288439641 0
1.40239921061e-05 -0.0131665822674 0
-6.56594297718e-05 -0.0132856310382 0
6.08225513761e-05 -0.0132873338748 0
7.38339296877e-05 -0.0132671656257 0
-9.42098511868e-05 -0.0132209947763 0
-3.1357179075e-05 -0.0134768079181 0