# vtk DataFile Version 2.0
Generated with Solid Solver
ASCII
DATASET UNSTRUCTURED_GRID
POINTS 999 float 
0.2 4.3001 0.0
1.4 4.3001 0.0
1.4 4.8001 0.0
0.2 4.8001 0.0
1.4 4.32033264049 0.0
1.4 4.34261203886 0.0
1.4 4.36714525371 0.0
1.4 4.3941602782 0.0
1.4 4.42390817466 0.0
1.4 4.45666541084 0.0
1.4 4.49273640748 0.0
1.4 4.5324564007 0.0
1.4 4.57619451608 0.0
1.4 4.62435723872 0.0
1.4 4.67739217343 0.0
1.4 4.73579218095 0.0
1.33333333333 4.8001 0.0
1.26666666667 4.8001 0.0
1.2 4.8001 0.0
1.13333333333 4.8001 0.0
1.06666666667 4.8001 0.0
1.0 4.8001 0.0
0.933333333334 4.8001 0.0
0.866666666668 4.8001 0.0
0.800000000001 4.8001 0.0
0.733333333334 4.8001 0.0
0.666666666668 4.8001 0.0
0.600000000001 4.8001 0.0
0.533333333334 4.8001 0.0
0.466666666667 4.8001 0.0
0.4 4.8001 0.0
0.333333333334 4.8001 0.0
0.266666666667 4.8001 0.0
0.2 4.73579218095 0.0
0.2 4.67739217343 0.0
0.2 4.62435723872 0.0
0.2 4.57619451608 0.0
0.2 4.5324564007 0.0
0.2 4.49273640748 0.0
0.2 4.45666541084 0.0
0.2 4.42390817466 0.0
0.2 4.3941602782 0.0
0.2 4.36714525371 0.0
0.2 4.34261203886 0.0
0.2 4.32033264049 0.0
0.212131543907 4.28436329506 0.0
0.224675715302 4.26895348652 0.0
0.23762369102 4.25388141198 0.0
0.250966423879 4.23915760374 0.0
0.264694484585 4.22479246611 0.0
0.278798324214 4.21079599189 0.0
0.293267939266 4.19717810803 0.0
0.308093289028 4.18394826442 0.0
0.323263842145 4.17111585877 0.0
0.338769084145 4.15868978512 0.0
0.354597997314 4.14667887342 0.0
0.37073960121 4.13509145532 0.0
0.387182441982 4.12393575334 0.0
0.403915091795 4.11321952025 0.0
0.420925712897 4.10295033813 0.0
0.438202430937 4.09313537461 0.0
0.455733079095 4.08378154223 0.0
0.473505374364 4.07489539439 0.0
0.491506842655 4.06648316882 0.0
0.509724826085 4.0585507802 0.0
0.528146580414 4.05110377808 0.0
0.546759103951 4.04414741762 0.0
0.56554943677 4.03768654322 0.0
0.584504260001 4.03172573401 0.0
0.60361041518 4.0262691282 0.0
0.622854334779 4.02132060039 0.0
0.642222678753 4.01688358113 0.0
0.661701681839 4.01296122392 0.0
0.681277836375 4.00955624851 0.0
0.700937245817 4.00667107217 0.0
0.720666255912 4.00430769845 0.0
0.740450894784 4.00246780161 0.0
0.76027736978 4.00115266363 0.0
0.780131702711 4.00036321235 0.0
0.799999999998 4.0001 0.0
0.819868297285 4.00036321235 0.0
0.839722630216 4.00115266363 0.0
0.859549105212 4.00246780161 0.0
0.879333744085 4.00430769845 0.0
0.89906275418 4.00667107217 0.0
0.918722163621 4.00955624851 0.0
0.938298318157 4.01296122392 0.0
0.957777321244 4.01688358113 0.0
0.977145665218 4.02132060039 0.0
0.996389584817 4.0262691282 0.0
1.01549574 4.03172573401 0.0
1.03445056323 4.03768654322 0.0
1.05324089605 4.04414741762 0.0
1.07185341958 4.05110377808 0.0
1.09027517391 4.0585507802 0.0
1.10849315734 4.06648316882 0.0
1.12649462563 4.07489539439 0.0
1.1442669209 4.08378154222 0.0
1.16179756906 4.0931353746 0.0
1.1790742871 4.10295033813 0.0
1.1960849082 4.11321952024 0.0
1.21281755802 4.12393575334 0.0
1.22926039879 4.13509145532 0.0
1.24540200269 4.14667887342 0.0
1.26123091585 4.15868978512 0.0
1.27673615785 4.17111585877 0.0
1.29190671097 4.18394826442 0.0
1.30673206073 4.19717810803 0.0
1.32120167579 4.21079599189 0.0
1.33530551541 4.22479246611 0.0
1.34903357612 4.23915760374 0.0
1.36237630898 4.25388141198 0.0
1.3753242847 4.26895348652 0.0
1.38786845609 4.28436329506 0.0
1.05632730172 4.43535283906 0.0
0.549964048968 4.4381053958 0.0
0.806135520676 4.28696690218 0.0
0.60389578305 4.23589310371 0.0
1.22984770884 4.35828704125 0.0
0.3703382852 4.35933552752 0.0
0.995322815839 4.23075031136 0.0
0.728315816804 4.1516935937 0.0
0.872128173905 4.14798724072 0.0
1.14059401893 4.24808468684 0.0
0.461553191009 4.24691671009 0.0
0.784706775856 4.54331390922 0.0
0.398287125272 4.55455970538 0.0
1.20625306554 4.55844743514 0.0
0.624100842742 4.1340824436 0.0
0.5257453845 4.16321776279 0.0
0.978502430793 4.12998737058 0.0
1.07419209812 4.16335154482 0.0
0.364313698077 4.26187035763 0.0
1.23509538257 4.26191716733 0.0
0.68124123937 4.36794548972 0.0
1.31679378691 4.32522066749 0.0
0.283206213094 4.32522066749 0.0
0.791498533126 4.08977141721 0.0
0.931481076052 4.3552344917 0.0
0.96671906557 4.60288042839 0.0
0.684451667517 4.08578036752 0.0
0.618335406951 4.60196910993 0.0
0.450982331762 4.17196171732 0.0
0.915674266355 4.08505633851 0.0
1.14900051594 4.17199012964 0.0
1.30193709687 4.4232448133 0.0
0.29857466761 4.42326296922 0.0
1.05734787542 4.32500107617 0.0
0.539273225177 4.32762599628 0.0
0.709896798149 4.25231026287 0.0
0.895708916005 4.24434194389 0.0
0.813273511364 4.41345766235 0.0
0.559289631452 4.10740879113 0.0
1.04001407307 4.10791539633 0.0
0.801161810585 4.20656244955 0.0
0.665113819616 4.49566650186 0.0
0.852577362173 4.06621846388 0.0
0.39025672787 4.1993806298 0.0
1.20974450479 4.19938104599 0.0
0.921542541183 4.50288058719 0.0
1.14030889032 4.33947344809 0.0
1.15600477272 4.44318538305 0.0
0.435243219029 4.4501581257 0.0
0.462045157798 4.34164654286 0.0
0.735806812738 4.05982269746 0.0
1.30082934537 4.27303772796 0.0
0.299170654625 4.27303772796 0.0
0.533651712118 4.23775983853 0.0
0.666130919144 4.19162131559 0.0
1.0676097303 4.23689469382 0.0
1.08054433577 4.56040946155 0.0
0.506773767255 4.54078295079 0.0
0.626745312844 4.07634420826 0.0
0.933845304214 4.1857954732 0.0
0.293717639664 4.52685000185 0.0
0.31250502208 4.63936411351 0.0
1.3058164124 4.52664930624 0.0
1.29054387065 4.63812765963 0.0
0.973467966326 4.07451619478 0.0
0.487935413164 4.12597084015 0.0
0.461549079751 4.66346834982 0.0
1.11203248746 4.12603503889 0.0
1.14453515393 4.68127370303 0.0
0.840217564202 4.66401146633 0.0
0.585347033288 4.18049048534 0.0
0.619177396637 4.31737576306 0.0
0.331644410315 4.22472190462 0.0
1.26835558968 4.22472190462 0.0
1.01536156978 4.17497473052 0.0
0.809331033562 4.04575709122 0.0
0.982321540791 4.30947358971 0.0
0.725600576914 4.64509651799 0.0
0.812291456186 4.14152942492 0.0
0.335887692543 4.31428235669 0.0
1.26344844681 4.31527131907 0.0
1.23449730504 4.46967441524 0.0
1.34334172096 4.38049551957 0.0
0.256658279045 4.38049551957 0.0
0.741646926828 4.31797908527 0.0
0.674799084703 4.14183768522 0.0
1.18647435526 4.28465189749 0.0
0.360563250284 4.47106479569 0.0
0.873716483853 4.31355499203 0.0
0.418704489949 4.28656264283 0.0
0.492670911224 4.20441614809 0.0
0.403480880356 4.16556776931 0.0
1.19651541215 4.1655686246 0.0
0.728649253738 4.43724546491 0.0
1.00883674467 4.37684664879 0.0
1.11035034557 4.20671841276 0.0
0.261968539765 4.2881079512 0.0
1.33803146023 4.2881079512 0.0
0.74649980488 4.1069354354 0.0
0.927597725248 4.1328597079 0.0
0.892956618256 4.05129338913 0.0
0.659794281787 4.05461387326 0.0
0.587663534405 4.06996537006 0.0
0.942353209926 4.05445300973 0.0
1.01493747319 4.06986013719 0.0
0.613130017774 4.38879803882 0.0
0.449373501074 4.12887191978 0.0
0.514840228377 4.09735850006 0.0
0.497057592 4.38843092106 0.0
1.15061382426 4.12889293084 0.0
1.08514419473 4.09738328152 0.0
0.745617635771 4.20608957592 0.0
0.875234522129 4.57363036549 0.0
0.855262884783 4.2009970831 0.0
1.01126200032 4.50790064162 0.0
1.09391916408 4.38142408872 0.0
1.04436265455 4.68992000827 0.0
0.314320181089 4.36283968607 0.0
1.28649331902 4.36253720145 0.0
0.771211579291 4.03826862024 0.0
0.432259099658 4.21516002157 0.0
0.698583889427 4.04654353526 0.0
1.16802128371 4.213962881 0.0
1.09587629216 4.2837676659 0.0
1.35920470355 4.33176960471 0.0
0.240795296449 4.33176960471 0.0
0.504003580654 4.28325758118 0.0
0.579942709371 4.5093075073 0.0
0.875915224914 4.10325792528 0.0
0.426503136644 4.38227733008 0.0
0.57541416445 4.27875301522 0.0
0.683877978289 4.30671848113 0.0
0.888061695889 4.42143509246 0.0
1.33987712478 4.47369249103 0.0
0.26012287522 4.47369249103 0.0
0.801393572636 4.34570096582 0.0
0.558460082533 4.70006728209 0.0
1.1741923373 4.38642830101 0.0
0.83220012886 4.10289415912 0.0
1.02815069622 4.27563276509 0.0
0.948308583502 4.2631204454 0.0
0.846588933095 4.48344596945 0.0
1.25632767671 4.40990360053 0.0
0.343666800815 4.40995820652 0.0
0.97849585731 4.44541535602 0.0
1.10170977548 4.49017265998 0.0
0.662193131828 4.24319398492 0.0
0.400503668388 4.24391657105 0.0
1.20117145985 4.23640427377 0.0
0.350957892513 4.19306558019 0.0
1.24904210749 4.19306558019 0.0
0.771964652188 4.16415379403 0.0
0.932165148285 4.70246281402 0.0
0.373672364094 4.70831357765 0.0
0.760245937722 4.25919350779 0.0
0.848718469252 4.03277763075 0.0
1.23385612561 4.7109294747 0.0
0.846421485813 4.25575918421 0.0
0.651597058631 4.10553284014 0.0
0.650489852551 4.69648045504 0.0
0.58457834847 4.13885088261 0.0
0.48701309933 4.16369927013 0.0
0.708495738406 4.56366947756 0.0
1.11203398596 4.16388062515 0.0
0.54865558244 4.07760047869 0.0
1.05126102377 4.07744629471 0.0
0.300013757486 4.23769646442 0.0
1.29998624251 4.23769646442 0.0
0.9465032388 4.10228070354 0.0
0.708587583337 4.11656095907 0.0
0.973348904468 4.17047871864 0.0
0.628721855632 4.17048356945 0.0
0.380175010019 4.31531880077 0.0
0.662092932411 4.43409041267 0.0
1.05133526787 4.19731992007 0.0
0.528087045766 4.61837882187 0.0
1.22233124543 4.31031693908 0.0
1.19001193434 4.33783586668 0.0
0.853024099244 4.37054003492 0.0
0.542800296246 4.19834366905 0.0
0.247706318737 4.42749119247 0.0
1.35229368126 4.42749119247 0.0
0.599153768578 4.10463797005 0.0
1.01616570494 4.13737683178 0.0
0.744705786938 4.38079544575 0.0
1.31929001115 4.71212550052 0.0
0.777615355331 4.12623602511 0.0
0.265621610877 4.58485488866 0.0
1.33132411895 4.58141378639 0.0
0.532023338888 4.12884454388 0.0
1.0697792195 4.12751429251 0.0
0.286371037106 4.70520312914 0.0
0.497725885905 4.47663668256 0.0
0.46053455822 4.29097947599 0.0
0.433799237968 4.52139400991 0.0
0.388624781906 4.62604200004 0.0
0.554823673752 4.37961940232 0.0
1.1421595646 4.29328301431 0.0
1.14760043966 4.59165103139 0.0
1.21258698805 4.62830200685 0.0
1.16279096046 4.50802621409 0.0
0.995762647814 4.10018772517 0.0
0.456229040627 4.58966685246 0.0
0.707289391156 4.19030271873 0.0
0.763036833302 4.71795445535 0.0
[...]
POINT_DATA 999
VECTORS Displacement float
-0.000264967711453 -0.026740380215 0
0.000259445909294 -0.0267441020731 0
0.0 -0.027 0
0.0 -0.027 0
0.000273505201752 -0.0267427469871 0
0.000287257388088 -0.0267406580445 0
0.000299529770065 -0.0267378936736 0
0.000309610161959 -0.0267356564387 0
0.00031485648295 -0.0267347125906 0
0.000317047381904 -0.0267358363285 0
0.000311642258099 -0.0267397507929 0
0.000297816293273 -0.0267473231343 0
0.000274203758925 -0.0267619352581 0
0.000236766290865 -0.0267858850592 0
0.000183953194267 -0.026824656343 0
0.000109694124663 -0.0268871294082 0
0.0 -0.027 0
0.0 -0.027 0
0.0 -0.027 0
0.0 -0.027 0
0.0 -0.027 0
0.0 -0.027 0
0.0 -0.027 0
0.0 -0.027 0
0.0 -0.027 0
0.0 -0.027 0
0.0 -0.027 0
0.0 -0.027 0
0.0 -0.027 0
0.0 -0.027 0
0.0 -0.027 0
0.0 -0.027 0
0.0 -0.027 0
-0.000109697238431 -0.0268868628745 0
-0.000184508764828 -0.0268239306003 0
-0.000239964762792 -0.0267842952187 0
-0.000276771399929 -0.0267594563524 0
-0.000300621120998 -0.026744389149 0
-0.000315032692965 -0.0267365415731 0
-0.000320874379238 -0.0267325364081 0
-0.000319031304127 -0.0267313025052 0
-0.000314102544652 -0.026732145718 0
-0.000304317299411 -0.0267342954808 0
-0.000292320587609 -0.0267369958513 0
-0.000278816202541 -0.0267390439194 0
-0.000253597565267 -0.0267333574554 0
-0.000241075757482 -0.0267257604735 0
-0.000227438954131 -0.0267169642693 0
-0.000212461418755 -0.0267069309168 0
-0.000196283164898 -0.0266952449055 0
-0.000179302946112 -0.0266816089316 0
-0.000161417045959 -0.0266662854663 0
-0.000142021095485 -0.0266490633493 0
-0.000121544730732 -0.0266288341149 0
-0.000100754403667 -0.0266070910779 0
-7.88720101917e-05 -0.0265825451992 0
-5.55924171086e-05 -0.0265553409715 0
-3.19446854834e-05 -0.0265247782979 0
-7.24820425833e-06 -0.0264912528925 0
1.82016957408e-05 -0.026454339111 0
4.46465737894e-05 -0.0264134665979 0
7.13830574784e-05 -0.0263682768305 0
9.9743384873e-05 -0.0263186930564 0
0.000128100657478 -0.0262636132785 0
0.00015803636567 -0.0262023548771 0
0.000187454803461 -0.026134527424 0
0.000219611707744 -0.0260589230155 0
0.00025067061232 -0.0259732779917 0
0.000284473604515 -0.0258765740316 0
0.000317932706505 -0.0257657517296 0
0.000356731248276 -0.0256331155491 0
0.000389964322865 -0.0254730616936 0
0.000424990846042 -0.0252542081407 0
0.000441293144527 -0.0249683985707 0
0.000420784655853 -0.0247088104443 0
0.000370996069827 -0.0245002096302 0
0.000292379992254 -0.0243333367662 0
0.000204587641961 -0.0242145353127 0
0.000107034111913 -0.024144893423 0
-9.35283979303e-06 -0.0241160040363 0
-0.000116924859272 -0.024143417096 0
-0.000218522241624 -0.0242169562605 0
-0.00030793797243 -0.024334020094 0
-0.000381569346386 -0.0244990318031 0
-0.000431682889266 -0.0247073429839 0
-0.000459850720372 -0.0249691725355 0
-0.000433868988979 -0.0252617549589 0
-0.000401126225788 -0.0254745674971 0
-0.000366197641437 -0.0256357378167 0
-0.000327194531313 -0.0257678987494 0
-0.000293775294825 -0.0258787727596 0
-0.000259745555816 -0.0259755102613 0
-0.000228389543404 -0.0260607323301 0
-0.000196295977119 -0.0261361934718 0
-0.0001667801419 -0.0262041488087 0
-0.00013676917611 -0.0262655384156 0
-0.000108265544262 -0.026320774202 0
-7.97187648006e-05 -0.0263705033391 0
-5.27898562166e-05 -0.026415806314 0
-2.61607238446e-05 -0.0264567765932 0
-5.34273912397e-07 -0.026493779745 0
2.43290712552e-05 -0.0265273944883 0
4.81401686896e-05 -0.0265580526261 0
7.15855560859e-05 -0.0265853580606 0
9.36403923147e-05 -0.0266100043644 0
0.000114608961792 -0.026631842681 0
0.000135256419417 -0.0266521537003 0
0.00015481518235 -0.0266694472356 0
0.000172856800239 -0.0266848412888 0
0.000189993450406 -0.0266985495956 0
0.000206323939085 -0.0267103074974 0
0.000221453143993 -0.0267204168085 0
0.000235242409583 -0.0267292931747 0
0.000247917246545 -0.0267369778066 0
0.000248461724138 -0.0264420558708 0
-0.000247608359676 -0.026436692971 0
6.50994083972e-06 -0.0257038568695 0
-0.000225825438053 -0.0259520244746 0
0.000293110711999 -0.0266054091086 0
-0.000297796895608 -0.0266034065312 0
0.000217350373345 -0.0259404212548 0
-0.000113174454886 -0.0252049727288 0
0.000102845832799 -0.0251911177212 0
0.000227981621292 -0.0263934101921 0
-0.000233259726318 -0.0263854140132 0
-1.54816398943e-05 -0.0264865610429 0
-0.00025197611812 -0.0267390708838 0
0.000247986537008 -0.0267469780636 0
-0.000128744293127 -0.0256900622103 0
-0.000136818821186 -0.0261583240528 0
0.000110816148684 -0.0257017063129 0
0.000129913177075 -0.0261599071197 0
-0.0002378730818 -0.0265759056542 0
0.000231914547831 -0.0265775415377 0
-0.000161205186337 -0.0260855481033 0
0.000278121214791 -0.0266845897156 0
-0.000283288689194 -0.0266816045999 0
-1.13368642736e-05 -0.024691702251 0
0.000172905552526 -0.0260715488116 0
0.000120671651364 -0.0266678181538 0
-4.89069348959e-05 -0.0251781877064 0
-0.000132510035465 -0.0266730131453 0
-0.000130828486258 -0.0263857168086 0
3.80791446937e-05 -0.0251783949738 0
0.000123795216069 -0.0263879437812 0
0.000310364216271 -0.026700354661 0
-0.000314296528846 -0.0266976484205 0
0.000261086357926 -0.0262709875378 0
-0.000267078833266 -0.0262807293388 0
-0.000145329423637 -0.0256714505161 0
0.000146667608704 -0.0256576315326 0
1.62383956536e-05 -0.0261370557576 0
-2.319031523e-05 -0.0260061300834 0
1.62877956836e-05 -0.0260043622879 0
-2.19635340234e-06 -0.0253546483671 0
-0.000141777632471 -0.0264231093416 0
-1.0872307401e-05 -0.0246620360673 0
-0.000166213007775 -0.0265221217686 0
0.00015946943992 -0.0265247015194 0
0.000124232485838 -0.0264301119635 0
0.00028080182479 -0.0264581992564 0
0.000284363000628 -0.0265842565476 0
-0.000289323073383 -0.026599536064 0
-0.000285526490116 -0.0264537025216 0
1.81410026221e-05 -0.0246851330092 0
0.000239337563454 -0.026663647626 0
-0.000245124549168 -0.0266606354664 0
-0.000232799094778 -0.0261851493021 0
-0.000183160216318 -0.025610440669 0
0.000225561861201 -0.0261902638988 0
0.000204735600186 -0.0266659064714 0
-0.000223975834311 -0.0266455348057 0
2.94536019282e-05 -0.0256137115436 0
0.000173175556488 -0.0255949687027 0
-0.00029052925095 -0.0267548446895 0
-0.000200025529523 -0.026843615248 0
0.000287963917441 -0.026756739586 0
0.000200787432376 -0.0268436029785 0
-4.6634868369e-05 -0.0256155028785 0
-4.41144122986e-05 -0.0262764609943 0
-0.000147813627128 -0.026837680463 0
3.63705286135e-05 -0.0262784649854 0
0.00013210898328 -0.0268625472755 0
2.32859168869e-05 -0.0267551925562 0
-0.000184943009903 -0.0259381111545 0
-0.000228489899509 -0.0260772313416 0
-0.000195837984785 -0.0266179741307 0
0.000189491460092 -0.0266208772646 0
0.00016996272004 -0.025935534182 0
-1.7177542494e-05 -0.024400180814 0
0.000224145576144 -0.0260651066379 0
-4.85504418239e-05 -0.0267216188833 0
1.49668416079e-05 -0.0250147265953 0
-0.000277745121877 -0.0266267527558 0
0.000273064369853 -0.0266288973453 0
0.000295988397119 -0.026683568721 0
0.000304403623637 -0.0267115460853 0
-0.0003089697351 -0.0267085561302 0
-9.19260020382e-05 -0.0258525353604 0
-0.000145844899279 -0.0254198576862 0
0.000254694452293 -0.0265046129834 0
-0.000300507486358 -0.0266862653601 0
0.000109923299361 -0.0258568517898 0
-0.000262038428244 -0.0264941247777 0
-0.000191442613203 -0.0262832079577 0
-0.00011288983751 -0.0264932964102 0
0.000105736277655 -0.0264957509803 0
-8.92149958067e-05 -0.0262300051918 0
0.000234267521255 -0.0262599453126 0
0.000187026575672 -0.0262948407396 0
-0.000256959307513 -0.0266965848472 0
0.000251322952826 -0.0266998096957 0
-6.22503233574e-05 -0.0249053886122 0
0.000128891767572 -0.0254077782608 0
-7.59909125276e-05 -0.0248518443273 0
9.07686500647e-05 -0.0253191563667 0
9.25935983461e-05 -0.0258598845067 0
-0.000105193293637 -0.0253404433025 0
-0.000103080704683 -0.025876163737 0
-0.000220012776275 -0.0262455368239 0
-4.36802069694e-05 -0.0263859367196 0
2.63737013727e-05 -0.0261854222271 0
-0.000281240490651 -0.0264440307651 0
3.59968907531e-05 -0.0263881781583 0
-3.49014916942e-05 -0.0261871388394 0
-9.59334761886e-05 -0.0254083964529 0
6.41569777434e-05 -0.0265688543609 0
9.0875245186e-05 -0.0253881371476 0
0.000192758136745 -0.0265184378572 0
0.000274154055632 -0.026421281113 0
0.000101440749259 -0.0268464944757 0
-0.000301214079965 -0.0266635009923 0
0.000296468567579 -0.0266667526581 0
4.32897607302e-05 -0.0243905764907 0
-0.000193396856634 -0.0264398558504 0
9.56049004687e-05 -0.0249071576253 0
0.000185002882643 -0.0264423610983 0
0.000255364315766 -0.0263114874993 0
0.000281840886798 -0.0267165486784 0
-0.000286993454921 -0.0267132560172 0
-0.000261099671053 -0.0263097463618 0
-0.000200166063118 -0.0265290988497 0
6.7994986725e-05 -0.0249899114731 0
-0.000297371729256 -0.0265458058063 0
-0.000248406726698 -0.0261157724742 0
-0.000170436680442 -0.0259058035441 0
0.00010969781425 -0.0261986422959 0
0.000310280259392 -0.0267354018594 0
-0.000313964053859 -0.0267327460698 0
-2.74238637476e-08 -0.0259185021559 0
-9.3096934415e-05 -0.0268598684952 0
0.000292997266456 -0.0265526708724 0
3.0293493767e-05 -0.0248123228829 0
0.000242728121123 -0.0261222081375 0
0.000199047345499 -0.0258608983269 0
5.1545759566e-05 -0.0263415724102 0
0.000305220601449 -0.0266605705615 0
-0.000309249817352 -0.0266583930471 0
0.000192882333183 -0.0263565429237 0
0.000249868930212 -0.0265813669871 0
-0.000196211984361 -0.0257742535184 0
-0.000222852603391 -0.0265113078827 0
0.000208243073189 -0.0265149459405 0
-0.000154632594766 -0.0265885477505 0
0.000147910718596 -0.0265913607741 0
-5.16172634961e-05 -0.0251557483027 0
5.54285088132e-05 -0.0268411766993 0
-0.000114339375913 -0.0269080493621 0
-7.02315374675e-05 -0.0256133920594 0
-0.000108194252498 -0.0244379784471 0
0.000110926783917 -0.0269119521219 0
7.45652431071e-05 -0.0256081434328 0
-8.36745414064e-05 -0.025470735988 0
-6.57312873379e-05 -0.0268342715021 0
-0.000117105067117 -0.0259008085528 0
-0.000124947905214 -0.0262848958259 0
-8.14012024175e-05 -0.0265526967023 0
0.000118226020042 -0.0262844210716 0
8.25100880256e-05 -0.0260513527944 0
-9.15467498207e-05 -0.0260526895077 0
-0.000210248423734 -0.0266582108116 0
0.000204069940607 -0.0266612769364 0
6.65248782903e-05 -0.0254549725347 0
-0.000102151101102 -0.0251365163018 0
0.000172152940365 -0.0257394370013 0
-0.00017985881906 -0.0257284559213 0
-0.000278776571054 -0.026569577722 0
-0.000162676458726 -0.0262810922569 0
0.000188797565971 -0.0260998922934 0
-0.00016539720372 -0.0267473983605 0
0.000270664297146 -0.0265733064365 0
0.000283695917145 -0.0265392939211 0
7.32741619887e-05 -0.0260213790906 0
-0.000195503174729 -0.0261198336622 0
-0.000318362711971 -0.0267216328874 0
0.000314279462363 -0.0267245120775 0
-4.28438264502e-05 -0.0258038284162 0
0.000105953377925 -0.0259054777152 0
-7.87083533302e-05 -0.0260544378848 0
0.000118343007286 -0.0269095647509 0
-3.6104822572e-05 -0.0249344087376 0
-0.00025932131082 -0.0267927073673 0
0.000259017264314 -0.02679232639 0
-6.69909645084e-05 -0.0261245941214 0
5.48771261813e-05 -0.0261326848669 0
-0.000126192141448 -0.0269034636107 0
-0.000258850490915 -0.0265617574358 0
-0.000265703759371 -0.0264150134567 0
-0.000261799641727 -0.0266796526105 0
-0.000198005282678 -0.0268188281117 0
-0.00025865090497 -0.0263305693842 0
0.000261591074246 -0.0264242318194 0
0.000208857186914 -0.0267527075937 0
0.000194760586292 -0.02682237683 0
0.000264624389067 -0.0266626999067 0
2.4512257913e-05 -0.0257744009875 0
-0.000210667838521 -0.0267472648243 0
-0.000148047950445 -0.0254480412706 0
-1.47289303634e-05 -0.0268588827904 0
-1.97134248391e-05 -0.0263074017831 0
0.000174051430891 -0.0259287773265 0
-5.97559653227e-05 -0.0264562705001 0
0.000138710634507 -0.0254293432625 0
5.22355762563e-05 -0.0264586785784 0
0.000303884027923 -0.0267171991991 0
0.000115790399221 -0.0245584086416 0
-0.000233188569071 -0.0266246905176 0
0.000227224290891 -0.0266275395268 0
-0.000118972083892 -0.0265512456409 0
0.000111920331063 -0.0265539192324 0
-0.000204674418382 -0.0263857468389 0
-0.000291200886748 -0.0265384631609 0
-5.45262464776e-06 -0.0246060211341 0
-9.00576220658e-05 -0.0264283288336 0
-0.000201457393001 -0.0265687668135 0
0.000195134814575 -0.0265713361344 0
-0.000307397891017 -0.0267123839157 0
0.000298736795015 -0.0266264583346 0
0.000196832228101 -0.025767510607 0
-0.000232099256547 -0.0266871378155 0
0.000226157705892 -0.0266903462569 0
0.000149224853636 -0.0267813350285 0
-0.000301367385617 -0.0266230453669 0
-0.000270404730204 -0.0267165585877 0
0.000264965019889 -0.0267199511037 0
0.000145738658392 -0.0256466259174 0
6.38351191981e-05 -0.0252221589747 0
-0.000251425364946 -0.0267852792012 0
0.000248462762931 -0.0267868976426 0
-0.000230087320998 -0.0262928687441 0
-4.1526471535e-05 -0.0249528412098 0
1.92480388426e-06 -0.0254979464439 0
-4.64652317774e-07 -0.0246076687136 0
0.000272656796629 -0.026372373824 0
0.000224730428951 -0.0262980937997 0
-0.000220683413008 -0.0259497433451 0
-0.000170515553251 -0.0250170849639 0
-0.000146651124998 -0.025648250895 0
0.000271126172687 -0.0265230986635 0
-0.000273066920731 -0.0266596552641 0
0.000267752276383 -0.0266624741487 0
0.000129795793438 -0.0265440808557 0
-0.000277829765047 -0.0263732636702 0
-0.00022651597852 -0.0260368937014 0
0.000116634722466 -0.0260316902165 0
-0.000144215219811 -0.0265436829832 0
-1.43163772472e-05 -0.0266656787999 0
9.41508864901e-06 -0.026307580524 0
-1.74833298066e-05 -0.0263096317792 0
-0.000187710198053 -0.0263691729038 0
0.000175006369259 -0.0263723583264 0
-0.000301642741137 -0.0267517633318 0
0.000298696518556 -0.0267541414721 0
-0.000210384829866 -0.0258344303508 0
0.000220360320466 -0.0260568158319 0
-0.000135952438642 -0.026046190733 0
0.00016513669279 -0.0266516123186 0
-0.00014631075451 -0.0246019384733 0
0.000167007709058 -0.0262265844001 0
0.000295881326926 -0.026723183163 0
-0.000300739019157 -0.0267198786636 0
-0.000141036724239 -0.026451360534 0
1.50975721641e-05 -0.024889060471 0
0.000134069537685 -0.0264536929537 0
-0.00017249950207 -0.0256131813065 0
6.95834423789e-05 -0.0267108012919 0
7.66871025441e-05 -0.0269160401447 0
0.000257806556519 -0.026335515886 0
-0.000250752498051 -0.0262091763897 0
0.00029672463373 -0.0266900295895 0
-0.000301454614676 -0.026687207164 0
0.00027815141513 -0.0267345566576 0
-0.000282102540452 -0.0267306319779 0
9.692891669e-05 -0.0252077714423 0
0.000234788982766 -0.0264628120262 0
0.000192683839771 -0.0251074882054 0
1.14976010585e-05 -0.0242650577979 0
6.01130314727e-05 -0.0250197255284 0
-0.000289363302957 -0.0265286258359 0
-0.000238376075572 -0.0264717933237 0
-0.000164846630411 -0.026622432688 0
0.00015824115708 -0.0266253838725 0
4.97907190392e-05 -0.0258558548856 0
0.000163726004555 -0.0255845405123 0
-7.12988679584e-05 -0.0243273390302 0
0.000198167046977 -0.0268439640174 0
-0.0002616455933 -0.0266087732179 0
0.000255058924358 -0.0266116492364 0
0.000238239328711 -0.0261633965428 0
-0.000216202412704 -0.026829778737 0
-7.26223606266e-05 -0.0269209722526 0
0.000285967551766 -0.0264879719138 0
-0.000181265837453 -0.0266665535767 0
-0.000156452860537 -0.0255934291471 0
0.000213716688617 -0.0261320381845 0
0.000247179992821 -0.0262155434965 0
0.000193333025258 -0.0258608975515 0
0.000227205556834 -0.0259960466194 0
-0.000203708670208 -0.026122826852 0
-0.000284514104875 -0.0266655403875 0
-8.08458029658e-06 -0.0254217094882 0
-6.12086952713e-05 -0.0256730870968 0
-0.00028827178254 -0.0266567372253 0
0.000283152519406 -0.0266603797086 0
-0.000184181425706 -0.0266472576404 0
0.000177751268037 -0.026650305874 0
0.000135742093081 -0.0253449543498 0
0.000241669001678 -0.0265410701095 0
0.000229153993898 -0.0265286804565 0
0.000148625610676 -0.0255940692437 0
-0.000254768409989 -0.0262170397296 0
-0.000110472910182 -0.025716883691 0
-0.000262083945808 -0.0265488384749 0
-0.000273807599329 -0.0267004380918 0
0.000268429994919 -0.0267036447709 0
2.38660145678e-05 -0.0268748323537 0
-8.90047676156e-05 -0.0262042590926 0
-8.08761599721e-05 -0.0263284358703 0
-0.000289782910415 -0.0264851176184 0
0.000117771021965 -0.0257198166901 0
-7.98938542879e-06 -0.0254306546513 0
-0.00027049197176 -0.0264896446152 0
0.000173059236839 -0.0261958924839 0
7.68849330043e-05 -0.0269326181811 0
0.000144134517917 -0.0259868184616 0
7.4061928382e-05 -0.0263307793534 0
-8.31169083999e-05 -0.0266970015226 0
-7.19114608324e-05 -0.0250206816946 0
8.760572086e-05 -0.0262120526824 0
-5.12418741694e-05 -0.0254730850998 0
0.000100204891129 -0.0261391576819 0
-0.00015748913233 -0.0259916974996 0
-0.000175749218267 -0.0261971794745 0
-0.000108903440645 -0.0261408241953 0
3.78828915639e-07 -0.0248503672506 0
5.08914275873e-05 -0.0254674489261 0
1.90258523672e-06 -0.0244753081091 0
0.000310382840005 -0.0267245830582 0
-0.000314777638636 -0.0267214574336 0
0.000194296021219 -0.025786280207 0
0.000216981082541 -0.025519302713 0
-2.73768426534e-05 -0.0269048023323 0
-0.000221952112644 -0.025517254312 0
-0.000200916325772 -0.0257929465895 0
5.89650302343e-05 -0.0262703163769 0
1.42320709631e-05 -0.0263661830513 0
-0.000146001779837 -0.025364764589 0
-6.73657054301e-05 -0.026272250861 0
-2.22716793037e-05 -0.0263683887952 0
0.000288686240171 -0.0266450921412 0
0.000136444989503 -0.0267410245374 0
-3.4534903969e-05 -0.0258214498092 0
0.000138976539611 -0.0243725015454 0
-4.43851595576e-05 -0.0250755440865 0
0.000213057556156 -0.0246627278316 0
-0.000107231266608 -0.0253003938728 0
0.000281202062631 -0.0266032337835 0
0.000295633163042 -0.0267075488316 0
-0.000300466532349 -0.026704480888 0
-0.000234007423568 -0.0265227854006 0
-0.000310291172214 -0.0266849426058 0
0.000305916590838 -0.0266875584683 0
3.62143021221e-05 -0.0264723609964 0
-0.000211296993604 -0.0259365724671 0
4.90949080115e-05 -0.026904949016 0
-2.96797252265e-05 -0.0245145188404 0
0.000117830635374 -0.0260041793257 0
-7.53093471818e-05 -0.0265196630254 0
6.79357621573e-05 -0.0265222489696 0
-0.000294367672342 -0.0266324605667 0
0.000168424865472 -0.0258066941293 0
-7.15139550586e-06 -0.0259092814226 0
-0.000157090436218 -0.0258038476013 0
0.000232832176226 -0.0266855782252 0
-9.58969195845e-05 -0.025271328296 0
-0.000179148949879 -0.0258031849489 0
3.63993217355e-05 -0.0251303044414 0
6.72220238953e-06 -0.0251723452308 0
-0.000303179461091 -0.0266020381126 0
-0.000123222524675 -0.0261381325783 0
4.0082782427e-05 -0.0248397237057 0
-4.23571006233e-05 -0.0261654599597 0
-0.000140357284253 -0.0259611018755 0
1.70756852185e-05 -0.0260914299015 0
-9.89725608971e-05 -0.0264420176047 0
9.17092000043e-05 -0.0264443696279 0
-2.5706644839e-05 -0.0260930232764 0
5.81785239795e-05 -0.02573256141 0
-3.08988253697e-05 -0.0247590494627 0
3.41254208537e-05 -0.0259604452411 0
0.000307192032636 -0.0266898744663 0
-0.000310935740121 -0.0266861140384 0
-7.03425044045e-05 -0.0269377451995 0
0.000143632951088 -0.0258176857426 0
0.000298692523827 -0.0266025479961 0
-2.97407945281e-05 -0.0247395778127 0
-0.000221290203189 -0.0247890816081 0
-0.000268113591344 -0.0266810959979 0
0.000262634378612 -0.0266841530814 0
-0.000244911189475 -0.0267101392336 0
0.00023912064471 -0.0267135129675 0
-3.24322608553e-05 -0.0247193261025 0
-0.000281368771534 -0.0264973812294 0
1.5458216217e-05 -0.0257574235463 0
0.000275515088055 -0.0267085973019 0
0.000200838655528 -0.0260020894486 0
3.7817203735e-05 -0.0256069003953 0
0.000289491189275 -0.0266352086498 0
-0.000278832615389 -0.0267248315126 0
0.000273529580257 -0.0267283119192 0
7.94557040371e-05 -0.0264410262768 0
0.000224876913965 -0.0263529007556 0
-3.36179644468e-05 -0.0261996536441 0
-0.000255026976988 -0.0266378672952 0
0.000249371611308 -0.0266406685665 0
-0.000195130402207 -0.026492803826 0
-4.97233333123e-05 -0.0252986226854 0
0.000185493431333 -0.0264973822332 0
0.000184141474679 -0.0257398299449 0
5.49846717802e-05 -0.024512681122 0
-0.000274906910976 -0.0263622473045 0
2.62390246157e-05 -0.0262034008571 0
-0.00014419815643 -0.0264932432707 0
0.000137243405746 -0.0264956240107 0
0.000170011683394 -0.0264558920806 0
-0.000211931445061 -0.0263389032382 0
-7.28741221394e-05 -0.02694575139 0