# vtk DataFile Version 2.0
Generated with Solid Solver
ASCII
DATASET UNSTRUCTURED_GRID
POINTS 999 float 
0.2 4.3001 0.0
1.4 4.3001 0.0
1.4 4.8001 0.0
0.2 4.8001 0.0
1.4 4.32033264049 0.0
1.4 4.34261203886 0.0
1.4 4.36714525371 0.0
1.4 4.3941602782 0.0
1.4 4.42390817466 0.0
1.4 4.45666541084 0.0
1.4 4.49273640748 0.0
1.4 4.5324564007 0.0
1.4 4.57619451608 0.0
1.4 4.62435723872 0.0
1.4 4.67739217343 0.0
1.4 4.73579218095 0.0
1.33333333333 4.8001 0.0
1.26666666667 4.8001 0.0
1.2 4.8001 0.0
1.13333333333 4.8001 0.0
1.06666666667 4.8001 0.0
1.0 4.8001 0.0
0.933333333334 4.8001 0.0
0.866666666668 4.8001 0.0
0.800000000001 4.8001 0.0
0.733333333334 4.8001 0.0
0.666666666668 4.8001 0.0
0.600000000001 4.8001 0.0
0.533333333334 4.8001 0.0
0.466666666667 4.8001 0.0
0.4 4.8001 0.0
0.333333333334 4.8001 0.0
0.266666666667 4.8001 0.0
0.2 4.73579218095 0.0
0.2 4.67739217343 0.0
0.2 4.62435723872 0.0
0.2 4.57619451608 0.0
0.2 4.5324564007 0.0
0.2 4.49273640748 0.0
0.2 4.45666541084 0.0
0.2 4.42390817466 0.0
0.2 4.3941602782 0.0
0.2 4.36714525371 0.0
0.2 4.34261203886 0.0
0.2 4.32033264049 0.0
0.212131543907 4.28436329506 0.0
0.224675715302 4.26895348652 0.0
0.23762369102 4.25388141198 0.0
0.250966423879 4.23915760374 0.0
0.264694484585 4.22479246611 0.0
0.278798324214 4.21079599189 0.0
0.293267939266 4.19717810803 0.0
0.308093289028 4.18394826442 0.0
0.323263842145 4.17111585877 0.0
0.338769084145 4.15868978512 0.0
0.354597997314 4.14667887342 0.0
0.37073960121 4.13509145532 0.0
0.387182441982 4.12393575334 0.0
0.403915091795 4.11321952025 0.0
0.420925712897 4.10295033813 0.0
0.438202430937 4.09313537461 0.0
0.455733079095 4.08378154223 0.0
0.473505374364 4.07489539439 0.0
0.491506842655 4.06648316882 0.0
0.509724826085 4.0585507802 0.0
0.528146580414 4.05110377808 0.0
0.546759103951 4.04414741762 0.0
0.56554943677 4.03768654322 0.0
0.584504260001 4.03172573401 0.0
0.60361041518 4.0262691282 0.0
0.622854334779 4.02132060039 0.0
0.642222678753 4.01688358113 0.0
0.661701681839 4.01296122392 0.0
0.681277836375 4.00955624851 0.0
0.700937245817 4.00667107217 0.0
0.720666255912 4.00430769845 0.0
0.740450894784 4.00246780161 0.0
0.76027736978 4.00115266363 0.0
0.780131702711 4.00036321235 0.0
0.799999999998 4.0001 0.0
0.819868297285 4.00036321235 0.0
0.839722630216 4.00115266363 0.0
0.859549105212 4.00246780161 0.0
0.879333744085 4.00430769845 0.0
0.89906275418 4.00667107217 0.0
0.918722163621 4.00955624851 0.0
0.938298318157 4.01296122392 0.0
0.957777321244 4.01688358113 0.0
0.977145665218 4.02132060039 0.0
0.996389584817 4.0262691282 0.0
1.01549574 4.03172573401 0.0
1.03445056323 4.03768654322 0.0
1.05324089605 4.04414741762 0.0
1.07185341958 4.05110377808 0.0
1.09027517391 4.0585507802 0.0
1.10849315734 4.06648316882 0.0
1.12649462563 4.07489539439 0.0
1.1442669209 4.08378154222 0.0
1.16179756906 4.0931353746 0.0
1.1790742871 4.10295033813 0.0
1.1960849082 4.11321952024 0.0
1.21281755802 4.12393575334 0.0
1.22926039879 4.13509145532 0.0
1.24540200269 4.14667887342 0.0
1.26123091585 4.15868978512 0.0
1.27673615785 4.17111585877 0.0
1.29190671097 4.18394826442 0.0
1.30673206073 4.19717810803 0.0
1.32120167579 4.21079599189 0.0
1.33530551541 4.22479246611 0.0
1.34903357612 4.23915760374 0.0
1.36237630898 4.25388141198 0.0
1.3753242847 4.26895348652 0.0
1.38786845609 4.28436329506 0.0
1.05632730172 4.43535283906 0.0
0.549964048968 4.4381053958 0.0
0.806135520676 4.28696690218 0.0
0.60389578305 4.23589310371 0.0
1.22984770884 4.35828704125 0.0
0.3703382852 4.35933552752 0.0
0.995322815839 4.23075031136 0.0
0.728315816804 4.1516935937 0.0
0.872128173905 4.14798724072 0.0
1.14059401893 4.24808468684 0.0
0.461553191009 4.24691671009 0.0
0.784706775856 4.54331390922 0.0
0.398287125272 4.55455970538 0.0
1.20625306554 4.55844743514 0.0
0.624100842742 4.1340824436 0.0
0.5257453845 4.16321776279 0.0
0.978502430793 4.12998737058 0.0
1.07419209812 4.16335154482 0.0
0.364313698077 4.26187035763 0.0
1.23509538257 4.26191716733 0.0
0.68124123937 4.36794548972 0.0
1.31679378691 4.32522066749 0.0
0.283206213094 4.32522066749 0.0
0.791498533126 4.08977141721 0.0
0.931481076052 4.3552344917 0.0
0.96671906557 4.60288042839 0.0
0.684451667517 4.08578036752 0.0
0.618335406951 4.60196910993 0.0
0.450982331762 4.17196171732 0.0
0.915674266355 4.08505633851 0.0
1.14900051594 4.17199012964 0.0
1.30193709687 4.4232448133 0.0
0.29857466761 4.42326296922 0.0
1.05734787542 4.32500107617 0.0
0.539273225177 4.32762599628 0.0
0.709896798149 4.25231026287 0.0
0.895708916005 4.24434194389 0.0
0.813273511364 4.41345766235 0.0
0.559289631452 4.10740879113 0.0
1.04001407307 4.10791539633 0.0
0.801161810585 4.20656244955 0.0
0.665113819616 4.49566650186 0.0
0.852577362173 4.06621846388 0.0
0.39025672787 4.1993806298 0.0
1.20974450479 4.19938104599 0.0
0.921542541183 4.50288058719 0.0
1.14030889032 4.33947344809 0.0
1.15600477272 4.44318538305 0.0
0.435243219029 4.4501581257 0.0
0.462045157798 4.34164654286 0.0
0.735806812738 4.05982269746 0.0
1.30082934537 4.27303772796 0.0
0.299170654625 4.27303772796 0.0
0.533651712118 4.23775983853 0.0
0.666130919144 4.19162131559 0.0
1.0676097303 4.23689469382 0.0
1.08054433577 4.56040946155 0.0
0.506773767255 4.54078295079 0.0
0.626745312844 4.07634420826 0.0
0.933845304214 4.1857954732 0.0
0.293717639664 4.52685000185 0.0
0.31250502208 4.63936411351 0.0
1.3058164124 4.52664930624 0.0
1.29054387065 4.63812765963 0.0
0.973467966326 4.07451619478 0.0
0.487935413164 4.12597084015 0.0
0.461549079751 4.66346834982 0.0
1.11203248746 4.12603503889 0.0
1.14453515393 4.68127370303 0.0
0.840217564202 4.66401146633 0.0
0.585347033288 4.18049048534 0.0
0.619177396637 4.31737576306 0.0
0.331644410315 4.22472190462 0.0
1.26835558968 4.22472190462 0.0
1.01536156978 4.17497473052 0.0
0.809331033562 4.04575709122 0.0
0.982321540791 4.30947358971 0.0
0.725600576914 4.64509651799 0.0
0.812291456186 4.14152942492 0.0
0.335887692543 4.31428235669 0.0
1.26344844681 4.31527131907 0.0
1.23449730504 4.46967441524 0.0
1.34334172096 4.38049551957 0.0
0.256658279045 4.38049551957 0.0
0.741646926828 4.31797908527 0.0
0.674799084703 4.14183768522 0.0
1.18647435526 4.28465189749 0.0
0.360563250284 4.47106479569 0.0
0.873716483853 4.31355499203 0.0
0.418704489949 4.28656264283 0.0
0.492670911224 4.20441614809 0.0
0.403480880356 4.16556776931 0.0
1.19651541215 4.1655686246 0.0
0.728649253738 4.43724546491 0.0
1.00883674467 4.37684664879 0.0
1.11035034557 4.20671841276 0.0
0.261968539765 4.2881079512 0.0
1.33803146023 4.2881079512 0.0
0.74649980488 4.1069354354 0.0
0.927597725248 4.1328597079 0.0
0.892956618256 4.05129338913 0.0
0.659794281787 4.05461387326 0.0
0.587663534405 4.06996537006 0.0
0.942353209926 4.05445300973 0.0
1.01493747319 4.06986013719 0.0
0.613130017774 4.38879803882 0.0
0.449373501074 4.12887191978 0.0
0.514840228377 4.09735850006 0.0
0.497057592 4.38843092106 0.0
1.15061382426 4.12889293084 0.0
1.08514419473 4.09738328152 0.0
0.745617635771 4.20608957592 0.0
0.875234522129 4.57363036549 0.0
0.855262884783 4.2009970831 0.0
1.01126200032 4.50790064162 0.0
1.09391916408 4.38142408872 0.0
1.04436265455 4.68992000827 0.0
0.314320181089 4.36283968607 0.0
1.28649331902 4.36253720145 0.0
0.771211579291 4.03826862024 0.0
0.432259099658 4.21516002157 0.0
0.698583889427 4.04654353526 0.0
1.16802128371 4.213962881 0.0
1.09587629216 4.2837676659 0.0
1.35920470355 4.33176960471 0.0
0.240795296449 4.33176960471 0.0
0.504003580654 4.28325758118 0.0
0.579942709371 4.5093075073 0.0
0.875915224914 4.10325792528 0.0
0.426503136644 4.38227733008 0.0
0.57541416445 4.27875301522 0.0
0.683877978289 4.30671848113 0.0
0.888061695889 4.42143509246 0.0
1.33987712478 4.47369249103 0.0
0.26012287522 4.47369249103 0.0
0.801393572636 4.34570096582 0.0
0.558460082533 4.70006728209 0.0
1.1741923373 4.38642830101 0.0
0.83220012886 4.10289415912 0.0
1.02815069622 4.27563276509 0.0
0.948308583502 4.2631204454 0.0
0.846588933095 4.48344596945 0.0
1.25632767671 4.40990360053 0.0
0.343666800815 4.40995820652 0.0
0.97849585731 4.44541535602 0.0
1.10170977548 4.49017265998 0.0
0.662193131828 4.24319398492 0.0
0.400503668388 4.24391657105 0.0
1.20117145985 4.23640427377 0.0
0.350957892513 4.19306558019 0.0
1.24904210749 4.19306558019 0.0
0.771964652188 4.16415379403 0.0
0.932165148285 4.70246281402 0.0
0.373672364094 4.70831357765 0.0
0.760245937722 4.25919350779 0.0
0.848718469252 4.03277763075 0.0
1.23385612561 4.7109294747 0.0
0.846421485813 4.25575918421 0.0
0.651597058631 4.10553284014 0.0
0.650489852551 4.69648045504 0.0
0.58457834847 4.13885088261 0.0
0.48701309933 4.16369927013 0.0
0.708495738406 4.56366947756 0.0
1.11203398596 4.16388062515 0.0
0.54865558244 4.07760047869 0.0
1.05126102377 4.07744629471 0.0
0.300013757486 4.23769646442 0.0
1.29998624251 4.23769646442 0.0
0.9465032388 4.10228070354 0.0
0.708587583337 4.11656095907 0.0
0.973348904468 4.17047871864 0.0
0.628721855632 4.17048356945 0.0
0.380175010019 4.31531880077 0.0
0.662092932411 4.43409041267 0.0
1.05133526787 4.19731992007 0.0
0.528087045766 4.61837882187 0.0
1.22233124543 4.31031693908 0.0
1.19001193434 4.33783586668 0.0
0.853024099244 4.37054003492 0.0
0.542800296246 4.19834366905 0.0
0.247706318737 4.42749119247 0.0
1.35229368126 4.42749119247 0.0
0.599153768578 4.10463797005 0.0
1.01616570494 4.13737683178 0.0
0.744705786938 4.38079544575 0.0
1.31929001115 4.71212550052 0.0
0.777615355331 4.12623602511 0.0
0.265621610877 4.58485488866 0.0
1.33132411895 4.58141378639 0.0
0.532023338888 4.12884454388 0.0
1.0697792195 4.12751429251 0.0
0.286371037106 4.70520312914 0.0
0.497725885905 4.47663668256 0.0
0.46053455822 4.29097947599 0.0
0.433799237968 4.52139400991 0.0
0.388624781906 4.62604200004 0.0
0.554823673752 4.37961940232 0.0
1.1421595646 4.29328301431 0.0
1.14760043966 4.59165103139 0.0
1.21258698805 4.62830200685 0.0
1.16279096046 4.50802621409 0.0
0.995762647814 4.10018772517 0.0
0.456229040627 4.58966685246 0.0
0.707289391156 4.19030271873 0.0
0.763036833302 4.71795445535 0.0
[...]
POINT_DATA 999
VECTORS Displacement float
-0.000163770526201 -0.0178417707713 0
0.000159120291387 -0.0178448293876 0
0.0 -0.018 0
0.0 -0.018 0
0.000167557367064 -0.017844007774 0
0.000175808584102 -0.0178427392048 0
0.000183163553531 -0.0178410578524 0
0.000189188121586 -0.0178396881611 0
0.00019228155777 -0.0178390946445 0
0.000193515344501 -0.017839746494 0
0.000190133681374 -0.0178420834417 0
0.000181629121756 -0.0178466345921 0
0.000167167652475 -0.0178554571389 0
0.000144293047617 -0.0178699553442 0
0.000112062876162 -0.017893467895 0
6.67914504728e-05 -0.0179314136559 0
0.0 -0.018 0
0.0 -0.018 0
0.0 -0.018 0
0.0 -0.018 0
0.0 -0.018 0
0.0 -0.018 0
0.0 -0.018 0
0.0 -0.018 0
0.0 -0.018 0
0.0 -0.018 0
0.0 -0.018 0
0.0 -0.018 0
0.0 -0.018 0
0.0 -0.018 0
0.0 -0.018 0
0.0 -0.018 0
0.0 -0.018 0
-6.69698401975e-05 -0.0179310344518 0
-0.000112722401083 -0.017892670477 0
-0.000146685861405 -0.0178685234281 0
-0.0001692989136 -0.017853398033 0
-0.000184018071765 -0.0178442351585 0
-0.000192984305916 -0.0178394669026 0
-0.000196727078993 -0.0178370361925 0
-0.000195792116129 -0.0178362870689 0
-0.000192971199347 -0.0178367965123 0
-0.000187197502756 -0.0178380959044 0
-0.000180074709141 -0.017839727101 0
-0.000172030975638 -0.0178409637949 0
-0.00015698405774 -0.0178375909833 0
-0.000149502297898 -0.0178330668647 0
-0.00014134766347 -0.0178278219015 0
-0.000132385125589 -0.0178218334076 0
-0.000122700077261 -0.0178148518615 0
-0.000112532609041 -0.0178066995434 0
-0.000101821771117 -0.0177975348405 0
-9.02071096059e-05 -0.0177872323953 0
-7.79480270653e-05 -0.0177751313377 0
-6.55032312358e-05 -0.0177621253321 0
-5.24096801644e-05 -0.0177474471261 0
-3.84901890836e-05 -0.017731186572 0
-2.43573497916e-05 -0.017712932068 0
-9.610224343e-06 -0.017692922819 0
5.57282192766e-06 -0.0176709109394 0
2.13257533824e-05 -0.0176465709589 0
3.72358619203e-05 -0.0176197024098 0
5.40681563418e-05 -0.0175902794346 0
7.08848848348e-05 -0.0175576670401 0
8.85623938432e-05 -0.0175215160958 0
0.000105920709289 -0.0174816239186 0
0.000124736402082 -0.0174373931492 0
0.000142892476855 -0.0173876215249 0
0.000162367586275 -0.01733203513 0
0.000181636782129 -0.0172691095464 0
0.000203486549492 -0.017195884659 0
0.000222901582719 -0.0171110577897 0
0.000245802049133 -0.0170055669991 0
0.000261913350198 -0.0168748291025 0
0.000276204991325 -0.016672612428 0
0.000262899807895 -0.0164677563145 0
0.000216685214909 -0.0163013646138 0
0.000155630846203 -0.0161825675187 0
8.33721967868e-05 -0.0161132073051 0
-7.46490941194e-06 -0.016084926304 0
-9.06652525996e-05 -0.0161114283248 0
-0.000167780585141 -0.0161842742753 0
-0.000231032580045 -0.0163014692191 0
-0.000274517623018 -0.0164676759738 0
-0.000285022129521 -0.0166744631592 0
-0.000275435884246 -0.0168768772515 0
-0.000250748844356 -0.0170080041238 0
-0.000231380817815 -0.01711220643 0
-0.000211507176048 -0.017197223665 0
-0.000189542616876 -0.0172704146888 0
-0.00017019274795 -0.0173335085102 0
-0.000150508914051 -0.0173891916506 0
-0.000132128846504 -0.0174387731882 0
-0.000113311642491 -0.0174829400383 0
-9.58744124454e-05 -0.0175229269133 0
-7.81237301188e-05 -0.0175591879792 0
-6.11863670778e-05 -0.0175919272464 0
-4.42062854646e-05 -0.0176214704229 0
-2.81427994543e-05 -0.0176484375036 0
-1.22408935099e-05 -0.0176728644551 0
3.08633905662e-06 -0.0176949563209 0
1.79715952568e-05 -0.0177150442777 0
3.22404123322e-05 -0.0177333800333 0
4.62968808299e-05 -0.0177497242972 0
5.95313366514e-05 -0.0177644850583 0
7.21202690135e-05 -0.0177775699098 0
8.45187564272e-05 -0.0177897407739 0
9.62677248369e-05 -0.0178001066366 0
0.000107108376803 -0.017809333746 0
0.000117406099362 -0.0178175496171 0
0.000127218497965 -0.0178245945053 0
0.000136308248815 -0.0178306493995 0
0.000144590801119 -0.0178359637937 0
0.000152200873743 -0.0178405632334 0
0.000152678378266 -0.0176614103043 0
-0.000153015788111 -0.0176578519929 0
3.64580642382e-06 -0.0172032157468 0
-0.000143089407914 -0.0173660621235 0
0.00017941618296 -0.0177614616146 0
-0.000183370573639 -0.0177597823162 0
0.000136542108707 -0.0173595189576 0
-8.30888915233e-05 -0.0168933108254 0
7.52539905038e-05 -0.0168849331696 0
0.00014041947848 -0.0176343556225 0
-0.000145077354481 -0.0176291501454 0
-9.82612979168e-06 -0.0176866051003 0
-0.000154468174817 -0.0178416254734 0
0.000151470924142 -0.0178466796385 0
-8.52967223979e-05 -0.0172160634487 0
-8.72486721891e-05 -0.0174944833712 0
7.22337088756e-05 -0.0172237669921 0
8.13072482187e-05 -0.017495793083 0
-0.00014759918214 -0.0177433966036 0
0.00014259245461 -0.0177449214533 0
-0.000101360556606 -0.0174418096376 0
0.000170341702409 -0.017809129891 0
-0.000174703526018 -0.0178066964638 0
-1.19869279382e-05 -0.0165303998002 0
0.0001077385538 -0.0174337610966 0
7.39712791033e-05 -0.0177977691999 0
-4.58332033027e-05 -0.0169100755977 0
-8.16168113881e-05 -0.0178009103015 0
-8.34449055823e-05 -0.0176298852203 0
3.70697068707e-05 -0.0169112089456 0
7.75048724624e-05 -0.0176316642571 0
0.000189607295404 -0.0178185821295 0
-0.000192945351391 -0.0178164189249 0
0.000161132504217 -0.0175587341164 0
-0.000165895073568 -0.0175643629899 0
-9.49582254674e-05 -0.0171862123819 0
9.48393706648e-05 -0.0171783403266 0
9.73392190142e-06 -0.0174721420888 0
-1.86600661974e-05 -0.0174059636656 0
1.24438627536e-05 -0.0174051987756 0
-2.05386246908e-06 -0.016981346633 0
-8.79112345223e-05 -0.0176483080234 0
1.26521775021e-05 -0.0165285674226 0
-0.000104660619347 -0.0177112841729 0
9.90019221837e-05 -0.0177133568329 0
7.64272854013e-05 -0.017652567523 0
0.00017233485499 -0.017672562514 0
0.000174084073659 -0.0177482714615 0
-0.000177874295589 -0.017757203293 0
-0.000176359772674 -0.0176694596543 0
-1.29477950012e-05 -0.0165570770235 0
0.000147042678198 -0.017796591507 0
-0.000151916201128 -0.0177941427559 0
-0.000145553732513 -0.0175085396335 0
-0.000121108649632 -0.0171559473574 0
0.000139681766905 -0.0175120006706 0
0.000125355532767 -0.017797147971 0
-0.00013769844876 -0.0177846831136 0
1.3386960254e-05 -0.0171806415368 0
0.000113702165319 -0.0171472836465 0
-0.000177937344458 -0.0178510142516 0
-0.000122338153931 -0.0179049423301 0
0.000175717077997 -0.0178525887364 0
0.000122446442419 -0.0179051778519 0
-2.58613111545e-05 -0.017182247008 0
-3.14380604893e-05 -0.0175651390133 0
-9.05849596144e-05 -0.0179013885519 0
2.49138844768e-05 -0.017566725935 0
8.07073320348e-05 -0.0179165903261 0
1.41901801785e-05 -0.0178507559162 0
-0.000117857644063 -0.0173614762706 0
-0.000143483035262 -0.0174391128875 0
-0.000122416573165 -0.0177686179965 0
0.000117077931368 -0.0177709674977 0
0.000106941062285 -0.01736060595 0
-8.51834305854e-06 -0.0163106839754 0
0.000139754352796 -0.0174321352349 0
-2.99995683903e-05 -0.0178302873694 0
1.16190993806e-05 -0.0167572709769 0
-0.000171423875706 -0.0177738410714 0
0.00016733294758 -0.0177756848484 0
0.000180851629443 -0.0178084316958 0
0.00018608878717 -0.0178252833473 0
-0.000189940769988 -0.0178228309202 0
-5.90087815446e-05 -0.0172967963017 0
-0.00010165130414 -0.0170439964664 0
0.000156397169218 -0.0177010112074 0
-0.000184379140387 -0.0178096788239 0
6.93915767388e-05 -0.0173000276122 0
-0.000162186414072 -0.0176942339112 0
-0.000120033777695 -0.0175683275759 0
-7.27199219658e-05 -0.01769410341 0
6.67162672692e-05 -0.0176960898594 0
-5.58781738542e-05 -0.0175296159586 0
0.000144756803082 -0.0175504748105 0
0.000115757858108 -0.0175756434112 0
-0.000158989935439 -0.0178156422088 0
0.000154244242068 -0.0178182779034 0
-5.61680325031e-05 -0.0166936916647 0
8.93964928105e-05 -0.0170392111776 0
-2.59966471233e-05 -0.0167103808283 0
5.0751868754e-05 -0.01701988358 0
5.10766925107e-05 -0.0173221049046 0
-6.1372737942e-05 -0.0170325190046 0
-5.93341758164e-05 -0.0173316898823 0
-0.000136989917336 -0.017540980094 0
-3.12854225762e-05 -0.0176301525404 0
1.07133576418e-05 -0.0175114336403 0
-0.00017365083714 -0.0176630659092 0
2.48366136077e-05 -0.0176319434519 0
-1.78088704901e-05 -0.0175127952362 0
-6.5694537027e-05 -0.0170185766988 0
3.93057867721e-05 -0.0177370557148 0
6.15975261921e-05 -0.0170059729041 0
0.000118369503194 -0.0177071699649 0
0.000168431377375 -0.0176495601011 0
6.20655752355e-05 -0.0179067013141 0
-0.000185357907196 -0.0177958825672 0
0.000181362064368 -0.0177983965279 0
1.77588750379e-05 -0.0163106815929 0
-0.000120996312124 -0.0176620204854 0
3.95568039682e-05 -0.0167607779841 0
0.000114376330585 -0.0176639940176 0
0.000157354388635 -0.01758434168 0
0.000172566024887 -0.0178282941556 0
-0.000176909010888 -0.0178255956349 0
-0.000162182207434 -0.0175829609014 0
-0.000123514055711 -0.0177135826541 0
6.07160523184e-05 -0.0167623122373 0
-0.000183149741356 -0.017724945949 0
-0.000155601125263 -0.0174647368204 0
-0.000108515746605 -0.0173318191346 0
6.78957765678e-05 -0.01751061756 0
0.000189387851612 -0.0178396417608 0
-0.000192446593134 -0.0178374813186 0
-5.03648558168e-07 -0.0173370349315 0
-5.71377101871e-05 -0.0179147649702 0
0.000179443906521 -0.0177294595343 0
3.01337095472e-05 -0.0166216159631 0
0.000150751711033 -0.0174691095199 0
0.000125896326279 -0.0173069955164 0
3.16023805515e-05 -0.0175979011211 0
0.000186580193941 -0.01779462991 0
-0.000189999756331 -0.0177928468617 0
0.000118894704551 -0.0176083797924 0
0.000153093498999 -0.0177460923604 0
-0.000126549539775 -0.0172537516761 0
-0.000138633935877 -0.0177047153163 0
0.000128359188341 -0.0177074166406 0
-9.77391153899e-05 -0.0177510213201 0
9.20873397018e-05 -0.0177532958335 0
-3.81771919138e-05 -0.0168525087006 0
3.39385923011e-05 -0.0179032857776 0
-6.99322230194e-05 -0.0179441328451 0
-4.65522492406e-05 -0.0171470290296 0
-5.8701266732e-05 -0.0163630807569 0
6.76706140667e-05 -0.0179466078442 0
4.83020004169e-05 -0.0171441503472 0
-6.01687852108e-05 -0.0170883194402 0
-4.04359854521e-05 -0.0178990766169 0
-7.60561152917e-05 -0.0173421820118 0
-7.99342680818e-05 -0.0175698513443 0
-5.04089746117e-05 -0.0177272050124 0
7.41243447773e-05 -0.0175699682831 0
4.43008052169e-05 -0.0174328653362 0
-5.17783592073e-05 -0.0174339631519 0
-0.000131050190359 -0.0177926954986 0
0.000125849973562 -0.0177951885472 0
4.77179705969e-05 -0.0170801772239 0
-8.05939734928e-05 -0.0168611101024 0
0.000110574336354 -0.0172409412723 0
-0.00011717674427 -0.0172339641949 0
-0.000172096763087 -0.0177395082855 0
-0.000101300163073 -0.0175616612338 0
0.000117544334382 -0.0174587569536 0
-0.000101577262911 -0.0178464382404 0
0.000165943449586 -0.0177422535813 0
0.000173858744075 -0.0177216418133 0
4.55872080333e-05 -0.0174011308509 0
-0.000123096429611 -0.0174703647212 0
-0.000195368171992 -0.0178306905394 0
0.000191936169675 -0.0178330577404 0
-3.08092377351e-05 -0.0172875408564 0
6.7320533114e-05 -0.0173453306674 0
-4.98232421355e-05 -0.0174214930822 0
7.21189534034e-05 -0.0179451306795 0
-2.9889476052e-05 -0.016703411365 0
-0.000158649403757 -0.0178738890104 0
0.00015795891612 -0.0178740623271 0
-4.50615153424e-05 -0.0174752156337 0
3.58645925474e-05 -0.0174803516102 0
-7.71067570223e-05 -0.017941267993 0
-0.000159360810007 -0.0177340102571 0
-0.000164576508737 -0.0176465446501 0
-0.000160696050296 -0.0178056100883 0
-0.000121240031319 -0.0178899801459 0
-0.000160355446293 -0.0175937329635 0
0.000160751565784 -0.0176524738565 0
0.000127663164382 -0.0178500135306 0
0.000118891395748 -0.0178923235122 0
0.000161833610845 -0.0177956107979 0
1.75636070151e-05 -0.0172710894748 0
-0.000129223740884 -0.0178465295059 0
-0.000100871299155 -0.0170492134757 0
-9.11963116998e-06 -0.0179139890598 0
-1.25663595663e-05 -0.0175768512878 0
0.000109450445758 -0.0173463374157 0
-4.09373573753e-05 -0.0176720399128 0
9.3872221003e-05 -0.0170377277372 0
3.46271758777e-05 -0.0176739755094 0
0.000185552520858 -0.0178287338227 0
5.48066675199e-05 -0.0164755038282 0
-0.000144778663908 -0.0177726259305 0
0.000139760972919 -0.0177749345611 0
-7.63847846318e-05 -0.0177287243136 0
7.04664159024e-05 -0.0177308863023 0
-0.000126830312124 -0.0176261853079 0
-0.00017954770295 -0.0177206755538 0
-1.88812606358e-05 -0.0164758788944 0
-5.59577490556e-05 -0.0176511721039 0
-0.000125781161786 -0.0177391589916 0
0.000120460219739 -0.0177412567179 0
-0.000188515499039 -0.0178253813325 0
0.000182710448075 -0.0177739713386 0
0.000125760020916 -0.017252080065 0
-0.000144128654352 -0.0178099970498 0
0.000139126724895 -0.0178126148286 0
9.12991741691e-05 -0.017867179371 0
-0.000185208050656 -0.0177715182141 0
-0.00016701694437 -0.0178275657545 0
0.000162434846867 -0.0178303460273 0
8.38891055679e-05 -0.0172021867594 0
4.53156576685e-05 -0.0168975827853 0
-0.000153931763859 -0.0178695756408 0
0.000151618021112 -0.0178708627295 0
-0.000143426536626 -0.0175735668639 0
-4.83186751771e-05 -0.0167504450324 0
7.68582861117e-07 -0.0170730746071 0
8.52572205632e-06 -0.0164719957548 0
0.000167695157743 -0.0176205783154 0
0.000138699405802 -0.0175770547852 0
-0.000139794280878 -0.0173618423831 0
-9.52496919315e-05 -0.0168535448745 0
-8.66202642425e-05 -0.0172031303351 0
0.000166224238128 -0.0177110089118 0
-0.000168614537938 -0.0177935582992 0
0.000164121587621 -0.0177958642065 0
7.96992028019e-05 -0.017722274127 0
-0.000172012508808 -0.0176208041932 0
-0.00014270514792 -0.0174186945731 0
7.34934579664e-05 -0.0174198377852 0
-8.90928681822e-05 -0.0177220175706 0
-8.98602342819e-06 -0.0177960906363 0
4.43230879004e-07 -0.0175836514196 0
-7.20922277567e-06 -0.0175852792518 0
-0.00011764554977 -0.0176197655533 0
0.000108387458565 -0.0176221393139 0
-0.000184724024665 -0.01784898275 0
0.000182229996285 -0.0178509376593 0
-0.000134876979046 -0.0172948778857 0
0.000137351352298 -0.0174310791538 0
-8.70909564472e-05 -0.0174278569576 0
0.000101205888743 -0.0177881544019 0
-7.46142366144e-05 -0.0165199004389 0
0.000103356307855 -0.0175285438557 0
0.000180985061965 -0.0178322581307 0
-0.000185080342567 -0.0178295454925 0
-8.95663585264e-05 -0.0176690303915 0
3.11801270701e-05 -0.016708586455 0
8.37085237853e-05 -0.0176709123234 0
-0.000113758633493 -0.0171532147906 0
4.26263566511e-05 -0.0178237741601 0
4.68699133936e-05 -0.0179490179099 0
0.000158812906115 -0.0175971498308 0
-0.000156296116966 -0.0175200971848 0
0.000181502284064 -0.0178123814623 0
-0.000185500206132 -0.0178100719852 0
0.000169840678198 -0.0178392130253 0
-0.000172907888961 -0.0178364977983 0
7.47244665242e-05 -0.016913668705 0
0.00014442798631 -0.0176760084774 0
0.00011253403826 -0.0169146880986 0
6.07431439729e-06 -0.0162039641063 0
4.76509948908e-05 -0.0167659349093 0
-0.000178223076055 -0.0177143369458 0
-0.000148001841899 -0.0176809670457 0
-0.000103863065485 -0.0177712931823 0
9.83063762051e-05 -0.0177736843231 0
3.11473345515e-05 -0.0172983402487 0
0.000107306022148 -0.0171359692923 0
-4.19019190724e-05 -0.0162599690808 0
0.000120779074009 -0.0179053203023 0
-0.000161812533489 -0.0177630720022 0
0.000156511132113 -0.0177653557059 0
0.000147743411071 -0.0174923076138 0
-0.000132180518928 -0.0178964023093 0
-4.44943292437e-05 -0.0179519643251 0
0.000175372891038 -0.0176902848263 0
-0.000111502491791 -0.0177972392272 0
-0.000104782080379 -0.01715366188 0
0.000132787098788 -0.01747204311 0
0.000152830798507 -0.0175263348299 0
0.000122350620648 -0.0173134166984 0
0.000142211251818 -0.0173914628216 0
-0.000127671120464 -0.017465741196 0
-0.00017465003612 -0.0177971349163 0
-1.21140753014e-05 -0.0170681396783 0
-4.2799802088e-05 -0.0172106502958 0
-0.000177681199619 -0.0177918155831 0
0.000173376003204 -0.0177945878412 0
-0.000115444147233 -0.0177861452068 0
0.000110034777526 -0.0177886199551 0
9.47082178913e-05 -0.016990363365 0
0.000148490719524 -0.0177229928704 0
0.000140605217697 -0.0177138018603 0
9.81299125312e-05 -0.0171539838525 0
-0.000158815018561 -0.0175268791405 0
-7.18173835453e-05 -0.0172128208132 0
-0.000162131365217 -0.0177271091598 0
-0.000169048736646 -0.01781794548 0
0.000164517769335 -0.0178205671558 0
1.45901680547e-05 -0.017923736819 0
-5.8317087475e-05 -0.0175221847815 0
-5.3474066397e-05 -0.0175959077972 0
-0.00017875049155 -0.0176882256509 0
7.53935742207e-05 -0.0172151821205 0
-6.03421201652e-08 -0.0170742177582 0
-0.000166810494224 -0.017690404162 0
0.000107497180512 -0.017516622594 0
4.69394528007e-05 -0.0179591181323 0
8.08711483583e-05 -0.0173954239844 0
4.757909276e-05 -0.0175977248182 0
-5.126520448e-05 -0.0178153566207 0
-5.74480642983e-05 -0.0167669460575 0
5.56447236869e-05 -0.0175271382999 0
-3.48134976464e-05 -0.0170578329626 0
5.4567370754e-05 -0.017484315567 0
-9.08723001464e-05 -0.0173985562281 0
-0.000110761473551 -0.0175171003999 0
-6.18310321061e-05 -0.0174856264647 0
5.97211956995e-07 -0.0166437280218 0
3.3546960538e-05 -0.0170546003704 0
-5.80753437751e-06 -0.0163698845543 0
0.000189650055523 -0.0178330868715 0
-0.000193351713794 -0.0178305192045 0
0.000111103597796 -0.0172806349291 0
0.000126758164156 -0.0171339974769 0
-1.68534465104e-05 -0.0179420058877 0
-0.00013255518268 -0.0171326255335 0
-0.000117288233299 -0.0172845755767 0
2.99335652929e-05 -0.0175616100441 0
3.25535981663e-06 -0.0176184375285 0
-0.000102188824363 -0.0170014393492 0
-3.69559604205e-05 -0.0175631427718 0
-9.99103958499e-06 -0.0176201929664 0
0.000176515295298 -0.017785124385 0
8.35542935291e-05 -0.0178425279034 0
-2.25371958951e-05 -0.0172768354189 0
8.48771723454e-05 -0.0163136412234 0
-1.33450169188e-05 -0.0168625298191 0
0.000117960186118 -0.0165913001768 0
-7.99460448139e-05 -0.0169765840424 0
0.000172253160707 -0.0177602195751 0
0.000180841891555 -0.0178228906168 0
-0.000184919704793 -0.0178203776128 0
-0.000144288654917 -0.0177100510073 0
-0.000190698151834 -0.0178087534357 0
0.000187000865609 -0.0178108905357 0
2.20898076321e-05 -0.0176779604027 0
-0.000134242526389 -0.0173585733834 0
3.00495806165e-05 -0.0179421620366 0
-4.79461391668e-06 -0.0164090950763 0
7.36071939935e-05 -0.0173911597404 0
-5.02611831997e-05 -0.017709865999 0
4.40769977836e-05 -0.0177119539379 0
-0.000181321956717 -0.0177772557266 0
0.000107094695281 -0.0172713867763 0
-1.83328499046e-06 -0.0173500288777 0
-0.000101859011781 -0.0172823664772 0
0.000142427763175 -0.0178093032373 0
-6.82733362746e-05 -0.0169310747559 0
-0.000115145813261 -0.0172694994117 0
8.18914012134e-06 -0.0168984890591 0
4.48287970547e-06 -0.0168624323651 0
-0.000186501504978 -0.0177589072438 0
-7.73730326585e-05 -0.0174735110973 0
4.23954786228e-05 -0.0166501717414 0
-2.68303554908e-05 -0.0174896928145 0
-8.9063371915e-05 -0.0173648901786 0
5.38456945658e-06 -0.0174561752085 0
-6.43712027079e-05 -0.0176635149116 0
5.82647557798e-05 -0.0176654052591 0
-1.25576198491e-05 -0.0174574184148 0
3.69383545818e-05 -0.0172216797861 0
-4.06261450647e-05 -0.0165961198147 0
1.5950920982e-05 -0.0173798201889 0
0.000187668705155 -0.0178122746499 0
-0.000190847839118 -0.0178095393536 0
-4.30477763923e-05 -0.0179621734451 0
9.14898884649e-05 -0.0172912998318 0
0.0001827669871 -0.0177596318473 0
-3.26452444339e-05 -0.0165700920721 0
-0.000123661818763 -0.0166981656951 0
-0.000165652992453 -0.0178063856633 0
0.00016104064842 -0.0178088792571 0
-0.000151791926928 -0.0178237405847 0
0.000146916627652 -0.0178265019165 0
2.0790070644e-06 -0.0165869082455 0
-0.00017377518843 -0.0176960253777 0
5.06192246516e-06 -0.0172623225432 0
0.000168315448081 -0.0178235012496 0
0.000125632965309 -0.0173991601837 0
2.67286023374e-05 -0.017172831967 0
0.00017720582409 -0.0177794376552 0
-0.000172042315357 -0.0178324951774 0
0.000167574609236 -0.0178353514439 0
4.8791499358e-05 -0.0176589419014 0
0.000138556491068 -0.0176067520819 0
-2.50892706101e-05 -0.0175197062864 0
-0.000157842581636 -0.0177805096709 0
0.000153076623841 -0.017782791506 0
-0.000122008231043 -0.0176936998479 0
-3.51408619466e-05 -0.0169458352768 0
0.000114656480482 -0.0176969474046 0
0.000117989172689 -0.0172325009986 0
1.67837844281e-05 -0.0164185715018 0
-0.000170208011586 -0.0176135355328 0
1.87411699773e-05 -0.0175222777528 0
-9.14669591609e-05 -0.017694042087 0
8.56339868633e-05 -0.0176959800669 0
0.00010455733378 -0.0176687441528 0
-0.000132294091752 -0.0176014528719 0
-4.4522097972e-05 -0.0179670094456 0