# vtk DataFile Version 2.0
Generated with Solid Solver
ASCII
DATASET UNSTRUCTURED_GRID
POINTS 3376 float 
0.0 0.0 0.0
10.0 0.0 0.0
10.0 20.0 0.0
-20.0 20.0 0.0
-20.0 10.0 0.0
0.0 10.0 0.0
0.833333333333 0.0 0.0
1.66666666666 0.0 0.0
2.5 0.0 0.0
3.33333333333 0.0 0.0
4.16666666666 0.0 0.0
4.99999999999 0.0 0.0
5.83333333333 0.0 0.0
6.66666666666 0.0 0.0
7.5 0.0 0.0
8.33333333333 0.0 0.0
9.16666666667 0.0 0.0
10.0 0.833333333333 0.0
10.0 1.66666666667 0.0
10.0 2.5 0.0
10.0 3.33333333333 0.0
10.0 4.16666666666 0.0
10.0 4.99999999999 0.0
10.0 5.83333333332 0.0
10.0 6.66666666665 0.0
10.0 7.49999999998 0.0
10.0 8.33333333332 0.0
10.0 9.16666666665 0.0
10.0 9.99999999998 0.0
10.0 10.8333333333 0.0
10.0 11.6666666667 0.0
10.0 12.5 0.0
10.0 13.3333333333 0.0
10.0 14.1666666667 0.0
10.0 15.0 0.0
10.0 15.8333333333 0.0
10.0 16.6666666667 0.0
10.0 17.5 0.0
10.0 18.3333333333 0.0
10.0 19.1666666667 0.0
9.16666666667 20.0 0.0
8.33333333333 20.0 0.0
7.5 20.0 0.0
6.66666666666 20.0 0.0
5.83333333333 20.0 0.0
4.99999999999 20.0 0.0
4.16666666666 20.0 0.0
3.33333333333 20.0 0.0
2.5 20.0 0.0
1.66666666667 20.0 0.0
0.833333333336 20.0 0.0
6.22968343578e-12 20.0 0.0
-0.833333333324 20.0 0.0
-1.66666666665 20.0 0.0
-2.49999999998 20.0 0.0
-3.33333333331 20.0 0.0
-4.16666666664 20.0 0.0
-4.99999999997 20.0 0.0
-5.83333333331 20.0 0.0
-6.66666666664 20.0 0.0
-7.49999999998 20.0 0.0
-8.33333333331 20.0 0.0
-9.16666666665 20.0 0.0
-9.99999999998 20.0 0.0
-10.8333333333 20.0 0.0
-11.6666666667 20.0 0.0
-12.5 20.0 0.0
-13.3333333333 20.0 0.0
-14.1666666667 20.0 0.0
-15.0 20.0 0.0
-15.8333333333 20.0 0.0
-16.6666666667 20.0 0.0
-17.5 20.0 0.0
-18.3333333333 20.0 0.0
-19.1666666667 20.0 0.0
-20.0 19.1666666667 0.0
-20.0 18.3333333333 0.0
-20.0 17.5 0.0
-20.0 16.6666666667 0.0
-20.0 15.8333333333 0.0
-20.0 15.0 0.0
-20.0 14.1666666667 0.0
-20.0 13.3333333333 0.0
-20.0 12.5 0.0
-20.0 11.6666666667 0.0
-20.0 10.8333333333 0.0
-19.1730235423 10.0 0.0
-18.3797284881 10.0 0.0
-17.6187433349 10.0 0.0
-16.8887519472 10.0 0.0
-16.1884921944 10.0 0.0
-15.5167529047 10.0 0.0
-14.8723726678 10.0 0.0
-14.2542372138 10.0 0.0
-13.6612773723 10.0 0.0
-13.0924680557 10.0 0.0
-12.5468255297 10.0 0.0
-12.0234062793 10.0 0.0
-11.5213051425 10.0 0.0
-11.0396539003 10.0 0.0
-10.5776196625 10.0 0.0
-10.1344033495 10.0 0.0
-9.70923867748 10.0 0.0
-9.30139036915 10.0 0.0
-8.91015317549 10.0 0.0
-8.53485044712 10.0 0.0
-8.17483336014 10.0 0.0
-7.82947914906 10.0 0.0
-7.49819085487 10.0 0.0
-7.18039537282 10.0 0.0
-6.87554333369 10.0 0.0
-6.58310739056 10.0 0.0
-6.30258200594 10.0 0.0
-6.0334820499 10.0 0.0
-5.77534212807 10.0 0.0
-5.52771590448 10.0 0.0
-5.29017513998 10.0 0.0
-5.06230905604 10.0 0.0
-4.84372365623 10.0 0.0
-4.63404095764 10.0 0.0
-4.43289833453 10.0 0.0
-4.23994795471 10.0 0.0
-4.05485616896 10.0 0.0
-3.87730292039 10.0 0.0
-3.70698116111 10.0 0.0
-3.54359635194 10.0 0.0
-3.38686603027 10.0 0.0
-3.23651907912 10.0 0.0
-3.09229551389 10.0 0.0
-2.95394600295 10.0 0.0
-2.8212312778 10.0 0.0
-2.6939218355 10.0 0.0
-2.57179753103 10.0 0.0
-2.45464717514 10.0 0.0
-2.34226819258 10.0 0.0
-2.23446623199 10.0 0.0
-2.13105492286 10.0 0.0
-2.03185537803 10.0 0.0
-1.93669611498 10.0 0.0
-1.84541256519 10.0 0.0
-1.75784683497 10.0 0.0
-1.67384756865 10.0 0.0
-1.59326945786 10.0 0.0
-1.51597317424 10.0 0.0
-1.44182505367 10.0 0.0
-1.37069689272 10.0 0.0
-1.30246567685 10.0 0.0
-1.23701343268 10.0 0.0
-1.17422696062 10.0 0.0
-1.11399769537 10.0 0.0
-1.05622147623 10.0 0.0
-1.00079841558 10.0 0.0
-0.947632648382 10.0 0.0
-0.896632247901 10.0 0.0
-0.847709029227 10.0 0.0
-0.800778374052 10.0 0.0
-0.755759155663 10.0 0.0
-0.712573487603 10.0 0.0
-0.671146726415 10.0 0.0
-0.631407205345 10.0 0.0
-0.593286230325 10.0 0.0
-0.556717865035 10.0 0.0
-0.521638878127 10.0 0.0
-0.487988606977 10.0 0.0
-0.455708869049 10.0 0.0
-0.424743837019 10.0 0.0
-0.395039964522 10.0 0.0
-0.366545893497 10.0 0.0
-0.339212342744 10.0 0.0
-0.312992053036 10.0 0.0
-0.287839678208 10.0 0.0
-0.263711722329 10.0 0.0
-0.240566466214 10.0 0.0
-0.218363878956 10.0 0.0
-0.19706557994 10.0 0.0
-0.176634726652 10.0 0.0
-0.157035990745 10.0 0.0
-0.138235484632 10.0 0.0
-0.120200698476 10.0 0.0
-0.10290044328 10.0 0.0
-0.0863048034084 10.0 0.0
-0.0703850814774 10.0 0.0
-0.0551137468643 10.0 0.0
-0.0404643923611 10.0 0.0
-0.0264116848164 10.0 0.0
-0.0129313259612 10.0 0.0
0.0 9.9869290293 0.0
0.0 9.97273614037 0.0
0.0 9.95732504088 0.0
0.0 9.94059116512 0.0
0.0 9.92242097642 0.0
0.0 9.90269118867 0.0
0.0 9.88126794211 0.0
0.0 9.85800588018 0.0
0.0 9.83274717146 0.0
0.0 9.80532043964 0.0
0.0 9.7755395992 0.0
0.0 9.74320258692 0.0
0.0 9.7080900021 0.0
0.0 9.66996360916 0.0
0.0 9.62856472261 0.0
0.0 9.58361246155 0.0
0.0 9.53480182408 0.0
0.0 9.48180164148 0.0
0.0 9.42425229355 0.0
0.0 9.36176334698 0.0
0.0 9.29391080627 0.0
0.0 9.22023430085 0.0
0.0 9.14023393268 0.0
0.0 9.05336692683 0.0
0.0 8.95904388672 0.0
0.0 8.8566248339 0.0
0.0 8.74541486177 0.0
0.0 8.62465947134 0.0
0.0 8.49353932477 0.0
0.0 8.35116476079 0.0
0.0 8.19656981976 0.0
0.0 8.02870557185 0.0
0.0 7.84643307495 0.0
0.0 7.64851564422 0.0
0.0 7.43361042654 0.0
0.0 7.20025926172 0.0
0.0 6.94687903065 0.0
0.0 6.67175041776 0.0
0.0 6.37300682256 0.0
0.0 6.0486212669 0.0
0.0 5.69639275335 0.0
0.0 5.31393157367 0.0
0.0 4.89864271339 0.0
0.0 4.44770838675 0.0
0.0 3.95806925346 0.0
0.0 3.42640303763 0.0
0.0 2.8491026079 0.0
0.0 2.22225074128 0.0
0.0 1.54159453638 0.0
0.0 0.80251580848 0.0
0.0185141147688 14.9688392398 0.0
5.01983123163 10.0251217616 0.0
-4.95487441515 14.9748925883 0.0
-0.0272818454768 12.5036110406 0.0
-2.71726799628 12.7402254171 0.0
2.50638168472 9.98974631151 0.0
0.00611654162795 11.245477425 0.0
-1.53618241694 11.5899086086 0.0
1.25352698806 9.9928157608 0.0
3.60303013595 6.53967247403 0.0
3.74999786437 13.7498931774 0.0
-0.0148660075655 10.611125238 0.0
-0.85239433067 10.9165087382 0.0
0.618639133348 9.99301184661 0.0
1.89117670271 11.8864497809 0.0
1.80542063079 8.27386729028 0.0
0.939387457413 10.9442397546 0.0
-0.509263020956 10.5136035905 0.0
0.853656611649 9.18389454348 0.0
-9.94663171839 14.9799346935 0.0
-0.000831065720599 10.3175189064 0.0
0.314928707741 9.99402468825 0.0
0.469258217434 10.4702667883 0.0
0.455398432402 9.56319121774 0.0
-0.301142289312 10.2994682382 0.0
-5.17624209801 12.4377622537 0.0
-2.9120455053 11.3253083586 0.0
-1.61064436424 10.7534416077 0.0
-14.5522697295 14.6298624141 0.0
0.161220424579 10.1627905633 0.0
-0.924639890026 10.4091465155 0.0
-0.129218091554 10.180210152 0.0
-7.66383500196 12.4824745029 0.0
0.244180432821 9.76739567661 0.0
0.15615895826 9.99346451465 0.0
-0.00746418179769 10.1291877904 0.0
-4.1131484295 11.2577906096 0.0
-2.38992399938 10.7632575321 0.0
3.76734001122 8.52700711441 0.0
6.63471139333 7.36410248094 0.0
-0.545290583664 10.2464888407 0.0
-0.681855203195 11.7911148927 0.0
1.74317745528 6.50608215952 0.0
1.45552322545 13.7717842066 0.0
2.57918870764 16.5515648429 0.0
3.7710882923 11.4261568183 0.0
6.55083397857 12.6640460936 0.0
-1.32753058184 13.0862639389 0.0
-2.57039425481 15.1045616748 0.0
0.692909547429 11.9259894967 0.0
1.88932508998 10.7550723655 0.0
2.74104319449 3.99713337749 0.0
-1.33658128478 10.413217871 0.0
5.95487537078 4.21333188138 0.0
0.758908801347 8.42235204278 0.0
6.01947836546 16.4707381485 0.0
-0.327742176649 10.9414613493 0.0
0.12228731295 9.86562291335 0.0
0.351314906195 10.9469537674 0.0
0.932895915654 10.3607535284 0.0
-9.94658764654 12.2740090448 0.0
1.78180152562 9.21573929557 0.0
-0.251696154858 10.1324780559 0.0
0.409942400305 9.18283477424 0.0
0.889885654048 9.64507052811 0.0
-7.47261455668 16.8386340915 0.0
-6.16803202792 11.4169200388 0.0
-12.5780348344 12.7383976743 0.0
0.0859753835225 10.0635158711 0.0
0.460429680272 9.83707311319 0.0
-3.46098472671 10.8015616317 0.0
-1.05943164517 17.4575980785 0.0
0.22438754055 10.4042541845 0.0
0.390342381232 10.2256004042 0.0
0.0746221370959 9.98055545433 0.0
-5.17624209801 11.0448496014 0.0
0.883549392103 7.54106303538 0.0
-0.161173811654 10.4658488174 0.0
-1.71342689244 10.3993314153 0.0
-0.73201531135 10.1979959498 0.0
-0.381012342825 10.1288699039 0.0
-0.0942830817855 10.0945795907 0.0
-12.3223874947 17.0592724526 0.0
-4.001802114 17.4723515526 0.0
0.222157435157 9.55698475399 0.0
-6.45846771708 13.8180469625 0.0
-0.280977402392 13.8128933314 0.0
-16.7023147055 16.9320786021 0.0
-17.0603346904 13.0500713037 0.0
7.5035824812 10.3101660707 0.0
-4.12299358115 13.5411204175 0.0
-3.55672069582 12.101661918 0.0
-0.0304769645156 10.0620003347 0.0
-2.88972291738 10.4834266529 0.0
2.76554593092 8.9917785037 0.0
3.81300954778 9.84484611984 0.0
-1.0889477726 10.2196486236 0.0
-7.33929311384 11.1836470456 0.0
-8.72527689612 11.4030961748 0.0
-0.0930068089773 11.8682741168 0.0
1.36817662168 5.13373200791 0.0
-2.02149929404 11.2116030379 0.0
-2.29283524923 11.9904527957 0.0
-1.38581528198 14.4057992593 0.0
0.874786896779 12.8965731622 0.0
2.82065789412 10.9345657574 0.0
-2.0842079867 10.3716069523 0.0
1.32280857466 8.7529642627 0.0
-0.504813742552 10.1229736382 0.0
-8.21302581075 14.2432462616 0.0
0.366534362354 8.81098547723 0.0
-0.167291694181 10.07513962 0.0
-9.79736281861 17.4361181467 0.0
0.23825222734 9.90006016829 0.0
-0.62272467367 11.2944451273 0.0
1.87392339478 9.82831315054 0.0
0.110086826624 9.75846525405 0.0
0.0641574976335 9.9161427342 0.0
-1.14196255988 10.6924343901 0.0
-1.30237482432 11.1336714079 0.0
-14.8572203734 12.2881107519 0.0
-1.26272287717 12.2977433982 0.0
0.67541946331 10.2534031611 0.0
-1.26936062339 15.8093294064 0.0
-0.151380342678 10.3238746733 0.0
-0.672040547966 10.389514758 0.0
0.277882497001 10.6592899608 0.0
0.652224081808 16.6787605619 0.0
-0.235477996027 10.7056943664 0.0
-0.0345217094363 10.9294618721 0.0
0.431861992536 11.4515251827 0.0
1.45183009087 10.4379161723 0.0
1.39395409783 9.52942964662 0.0
4.47218220997 2.37563658332 0.0
2.81891897693 7.86819339568 0.0
5.37956602278 8.4066034942 0.0
2.49447277814 13.0287474716 0.0
5.65594687178 14.4478934976 0.0
[...]
POINT_DATA 3376
VECTORS Displacement float
0.0 0.0 0
0.0 0.0 0
-0.228525264833 0.0528255560898 0
-0.2 -0.163575462016 0
-0.2 -0.156996208833 0
-0.117844685525 -0.05571248754 0
0.0 0.0 0
0.0 0.0 0
0.0 0.0 0
0.0 0.0 0
0.0 0.0 0
0.0 0.0 0
0.0 0.0 0
0.0 0.0 0
0.0 0.0 0
0.0 0.0 0
0.0 0.0 0
-0.0087759377663 0.00869896550709 0
-0.0149876442759 0.0159301752275 0
-0.0214345758877 0.0220236450607 0
-0.0287829851103 0.0276301079107 0
-0.0365620129245 0.0325174045247 0
-0.045288862618 0.0370514070459 0
-0.0545830508126 0.0409343342931 0
-0.06435420663 0.044254838445 0
-0.074550851883 0.0469374587291 0
-0.0851799632461 0.0492491124334 0
-0.0958843397048 0.0509770477385 0
-0.106769604966 0.0522344587052 0
-0.11755623683 0.0530929773521 0
-0.12838709372 0.0535791336662 0
-0.138997121302 0.053813183752 0
-0.149457560308 0.0538868831591 0
-0.15974865423 0.0537909631662 0
-0.169835048211 0.0536293315963 0
-0.179798956974 0.0534268202832 0
-0.189635338243 0.0532475029492 0
-0.199384894731 0.0530805032997 0
-0.209096834554 0.052964210339 0
-0.218800602338 0.0528848328035 0
-0.228465094754 0.0430914764921 0
-0.228385164139 0.0333318611699 0
-0.228271400626 0.0235787098594 0
-0.228102589475 0.013842692329 0
-0.227906860235 0.00416346998533 0
-0.227646258808 -0.00545844196698 0
-0.227336460336 -0.0149749566388 0
-0.22693840574 -0.0243986588724 0
-0.226495447356 -0.033680984193 0
-0.225960695094 -0.0427980534607 0
-0.22531847389 -0.0517090587341 0
-0.22457557904 -0.0603756255377 0
-0.223817337903 -0.0687567429902 0
-0.22289810945 -0.076847464718 0
-0.221974226035 -0.0846480850457 0
-0.22100251813 -0.0920087334716 0
-0.219934376299 -0.0990611546588 0
-0.218921232734 -0.10573899751 0
-0.217859459045 -0.112050949099 0
-0.216735133157 -0.118011790276 0
-0.215637903594 -0.123544387911 0
-0.214543187505 -0.128715327513 0
-0.213517896159 -0.133499263824 0
-0.212428828328 -0.137952204636 0
-0.211392986588 -0.142123933334 0
-0.210384058243 -0.145815225375 0
-0.209253493942 -0.149183893921 0
-0.208250399912 -0.152236479688 0
-0.207229540741 -0.154849293936 0
-0.206176670173 -0.157175268315 0
-0.205115439053 -0.159124252883 0
-0.204122742109 -0.160729407472 0
-0.203056219897 -0.161951858003 0
-0.202075579897 -0.162845494512 0
-0.201018831471 -0.163376194758 0
-0.2 -0.163952717429 0
-0.2 -0.164196430503 0
-0.2 -0.164322090454 0
-0.2 -0.164159733878 0
-0.2 -0.163850214246 0
-0.2 -0.16337292197 0
-0.2 -0.16280863584 0
-0.2 -0.161992152401 0
-0.2 -0.160950935577 0
-0.2 -0.159782362573 0
-0.2 -0.158449172058 0
-0.196787624892 -0.156802035963 0
-0.193693717384 -0.156304618595 0
-0.19077271307 -0.15550657583 0
-0.187899618845 -0.154494874466 0
-0.185174656421 -0.153263230777 0
-0.182541286606 -0.151819240625 0
-0.180058844685 -0.150218403794 0
-0.177667563539 -0.148474265748 0
-0.175334394779 -0.146658011176 0
-0.173118155222 -0.144724776526 0
-0.170994014223 -0.142719180073 0
-0.168941049437 -0.14063856688 0
-0.166990080765 -0.138505601036 0
-0.165129236732 -0.13635250761 0
-0.163332885992 -0.13416501298 0
-0.161589214413 -0.131979680785 0
-0.159929550083 -0.12977967851 0
-0.158333305662 -0.127576891977 0
-0.15682070804 -0.125400635267 0
-0.155347676505 -0.123221829617 0
-0.153946679739 -0.121072590898 0
-0.152600400454 -0.118943679165 0
-0.151303231228 -0.116852201097 0
-0.150065103463 -0.114790803113 0
-0.148869749796 -0.112764180679 0
-0.147725610765 -0.110780442201 0
-0.146626757217 -0.108833519013 0
-0.145572189323 -0.106926181813 0
-0.144556896137 -0.105067723674 0
-0.143585049721 -0.103251390962 0
-0.142647513235 -0.101483873916 0
-0.141747065905 -0.0997603184377 0
-0.140881773322 -0.0980820614197 0
-0.140049150904 -0.0964510207682 0
-0.139250865311 -0.0948661748217 0
-0.138480801129 -0.0933292682326 0
-0.137740658969 -0.0918352286183 0
-0.137025084964 -0.0903876205736 0
-0.136339616094 -0.0889838253002 0
-0.135677093618 -0.0876264399 0
-0.1350400919 -0.0863104714669 0
-0.134424082941 -0.0850385830923 0
-0.133832267992 -0.0838060436228 0
-0.133260188747 -0.0826155116759 0
-0.132710190969 -0.0814643257759 0
-0.132179359534 -0.0803513270325 0
-0.131665106395 -0.079278469479 0
-0.131169476745 -0.0782418518588 0
-0.130691946459 -0.077239618555 0
-0.130230105344 -0.0762730353904 0
-0.12978355463 -0.0753422221009 0
-0.129352705875 -0.0744429610402 0
-0.128935501036 -0.0735768290053 0
-0.128533059164 -0.0727404071104 0
-0.128143300057 -0.0719359323627 0
-0.127766457798 -0.0711605670023 0
-0.127401878957 -0.070412608691 0
-0.12704791885 -0.0696934556954 0
-0.126706466992 -0.0689990905027 0
-0.126375374985 -0.0683323048618 0
-0.126054956448 -0.0676887076352 0
-0.1257438964 -0.0670706912635 0
-0.125443277493 -0.0664752889352 0
-0.125151304763 -0.0659028496254 0
-0.124868505029 -0.065350686633 0
-0.124594081843 -0.0648208350309 0
-0.124327694981 -0.0643122037401 0
-0.124069380379 -0.0638214221411 0
-0.123818615243 -0.0633511630799 0
-0.123575289598 -0.0628980176158 0
-0.123338486852 -0.0624639938013 0
-0.123108348154 -0.0620458695251 0
-0.122884622581 -0.0616440985113 0
-0.122667475334 -0.0612597796115 0
-0.122455735735 -0.0608895615673 0
-0.122249246338 -0.0605346517141 0
-0.122048250517 -0.0601946319862 0
-0.121852681871 -0.0598680295448 0
-0.121661906973 -0.0595541332202 0
-0.121476946227 -0.0592531592435 0
-0.121296113876 -0.0589659554596 0
-0.121118809535 -0.0586910431169 0
-0.120945369994 -0.0584266495675 0
-0.120775676481 -0.0581759309119 0
-0.12060890154 -0.057934553454 0
-0.120445610839 -0.0577052575798 0
-0.120285062616 -0.0574838267034 0
-0.120127684337 -0.0572752789395 0
-0.119972454562 -0.0570759384746 0
-0.119818722676 -0.0568880967407 0
-0.11966733338 -0.0567097655638 0
-0.119516892309 -0.0565409165829 0
-0.11936638789 -0.0563817597801 0
-0.11921558818 -0.0562345479772 0
-0.119062799131 -0.0560969752275 0
-0.118906996046 -0.0559753891959 0
-0.11874445043 -0.0558600486916 0
-0.118571774164 -0.0557677666632 0
-0.118375664129 -0.0556954284203 0
-0.118137808151 -0.0556658773066 0
-0.117155917876 -0.0559028527385 0
-0.116634176475 -0.0559881972221 0
-0.116131947044 -0.0560362890767 0
-0.115636954923 -0.0560607717516 0
-0.115146606176 -0.0560777535041 0
-0.114636272121 -0.0560809788022 0
-0.11410843728 -0.0560769384346 0
-0.113559682291 -0.0560685807141 0
-0.112984978422 -0.056049430222 0
-0.112380604991 -0.0560202291698 0
-0.111741628821 -0.0559862523245 0
-0.111070072414 -0.0559460583254 0
-0.110355757676 -0.0558933529311 0
-0.109600785205 -0.0558338971776 0
-0.108799997547 -0.0557619830204 0
-0.107947881484 -0.0556785031055 0
-0.107039043131 -0.0555853340333 0
-0.106074336527 -0.0554777751391 0
-0.105045296316 -0.0553549688354 0
-0.103947544358 -0.0552208207546 0
-0.102775965714 -0.0550630718018 0
-0.101524910493 -0.0548871597985 0
-0.100191848986 -0.0546943632331 0
-0.0987613495687 -0.0544692196971 0
-0.0972377492622 -0.0542161255869 0
-0.0956119871072 -0.0539375862038 0
-0.0938736128705 -0.0536256665769 0
-0.0920098796899 -0.0532701685704 0
-0.0900184761198 -0.0528797057889 0
-0.0878919374553 -0.0524342136314 0
-0.0856190414413 -0.0519365594707 0
-0.0831892474648 -0.0513815459571 0
-0.0805962615415 -0.0507521017358 0
-0.0778322482188 -0.0500413673013 0
-0.0748831384557 -0.0492347196141 0
-0.0717623726814 -0.0483253523703 0
-0.0684032640812 -0.047301771179 0
-0.064853886759 -0.0461409645934 0
-0.0610909151928 -0.0448365056972 0
-0.0571115614821 -0.0433338118032 0
-0.0529229768817 -0.0416572102516 0
-0.0485283117152 -0.0397028334885 0
-0.0439355960631 -0.037450403757 0
-0.0391582866103 -0.0348901083594 0
-0.03424074907 -0.0320131183247 0
-0.0292354305993 -0.0286441336836 0
-0.0241405320498 -0.0247260719656 0
-0.0189263178001 -0.0202340717719 0
-0.0138601609624 -0.0150869309982 0
-0.00841504944037 -0.00865166924954 0
-0.174631435137 -0.0598231892609 0
-0.106498169208 -0.000847883610716 0
-0.180028363242 -0.105334319463 0
-0.149112889837 -0.0585052210765 0
-0.157253547111 -0.0849258436425 0
-0.109793366788 -0.025276125587 0
-0.134778125197 -0.0567915326902 0
-0.143027396528 -0.072826003017 0
-0.112963344688 -0.0389296148336 0
-0.0585406111828 -0.0101192196368 0
-0.156940530629 -0.0177613374408 0
-0.12698160112 -0.0562948749747 0
-0.133613983799 -0.0653484108661 0
-0.114941363329 -0.04669357103 0
-0.13754006832 -0.0359360280966 0
-0.0846946329379 -0.0293374198089 0
-0.128134698287 -0.0451149893837 0
-0.127647078576 -0.0613395475324 0
-0.100168360002 -0.042149366921 0
-0.186516917668 -0.137548972111 0
-0.122971369885 -0.055816462588 0
-0.116062728841 -0.0507864280402 0
-0.123279306756 -0.0499295643243 0
-0.107289708409 -0.0481255413832 0
-0.12408670194 -0.0589083272793 0
-0.160793545877 -0.104660088736 0
-0.144833405104 -0.0847461774921 0
-0.134757354881 -0.0721775093939 0
-0.191695733813 -0.155555396468 0
-0.119939875693 -0.0534565399243 0
-0.12834466731 -0.0650847158222 0
-0.121622591842 -0.0570291057331 0
-0.167632984922 -0.121966594917 0
-0.111499544915 -0.0515054276125 0
-0.116715429447 -0.0531125519556 0
-0.120226761678 -0.0557450339462 0
-0.148219102676 -0.0946318567826 0
-0.137830105909 -0.0792139557235 0
-0.0862429455918 -0.0109267041993 0
-0.069253540853 0.0131217231229 0
-0.124741190877 -0.0611038779641 0
-0.142816400704 -0.0647271751412 0
-0.0598913682159 -0.0260177035243 0
-0.16034112062 -0.0433918851285 0
-0.189361079012 -0.0326378353405 0
-0.127532795172 -0.0147693779448 0
-0.141029486874 0.0136671452299 0
-0.157693375962 -0.0723529976324 0
-0.178439943915 -0.0853168829137 0
-0.141006346631 -0.0497851341867 0
-0.122536905423 -0.0335818745963 0
-0.0288275954317 -0.0111843182141 0
-0.130220095601 -0.068957281159 0
-0.0301664327429 0.00492990082582 0
-0.0880831116193 -0.0419681040225 0
-0.187448467058 0.00658039487859 0
-0.132124671698 -0.0601103973085 0
-0.113757470256 -0.0535644627396 0
-0.130096641576 -0.0523391861502 0
-0.119840370233 -0.0437280438886 0
-0.172542761057 -0.134780796081 0
-0.0993018098844 -0.0313339629139 0
-0.121767547344 -0.0580298620395 0
-0.100571177551 -0.0482862755493 0
-0.108045076161 -0.0424960573227 0
-0.19527532537 -0.123992926763 0
-0.156119056107 -0.110417028903 0
-0.181495911771 -0.147159821103 0
-0.118608857342 -0.0543844797229 0
-0.112512425636 -0.048440786242 0
-0.142122480736 -0.0884937733738 0
-0.199262060687 -0.0714723527176 0
-0.123311028662 -0.0530400480607 0
-0.119883393672 -0.050366346322 0
-0.116772509598 -0.0543903380745 0
-0.15010645084 -0.102557442522 0
-0.0750561959534 -0.0381963314066 0
-0.12560970263 -0.057764444377 0
-0.131698290763 -0.0724052554972 0
-0.125192046794 -0.0627557878377 0
-0.122529356415 -0.0592250874332 0
-0.120225973782 -0.0565272172299 0
-0.197908129183 -0.149186234696 0
-0.199336628333 -0.0983769826738 0
-0.107341513025 -0.0517120505898 0
-0.173822355913 -0.115494889476 0
-0.163311406726 -0.0622720082296 0
-0.198868556404 -0.161472575472 0
-0.193168057492 -0.159449525592 0
-0.10958998793 0.0236732140251 0
-0.167221439702 -0.0976373001972 0
-0.153672562462 -0.0913548134092 0
-0.119285364935 -0.0559393618709 0
-0.137211656935 -0.0830436048482 0
-0.0943038026288 -0.0208619553777 0
-0.105330768152 -0.0121127839524 0
-0.127163229025 -0.0661981267639 0
-0.158334762119 -0.117962195381 0
-0.164173833961 -0.126821931272 0
-0.142234599336 -0.0585812570075 0
-0.0435359956494 -0.0250367151177 0
-0.14078008796 -0.0767184897518 0
-0.149155090097 -0.0802843695097 0
-0.170648201597 -0.073799869594 0
-0.151658400133 -0.0489489042235 0
-0.122694390271 -0.0238845340147 0
-0.132981953616 -0.0757134398388 0
-0.0926205388736 -0.0356326884884 0
-0.123188373224 -0.0603865652062 0
-0.179766626209 -0.127261732024 0
-0.0945082024651 -0.0482335657041 0
-0.120521530007 -0.0570854132314 0
-0.199240053158 -0.137664701078 0
-0.114352627779 -0.0517177849073 0
-0.137132192022 -0.0635790382316 0
-0.108762163672 -0.0315948252583 0
-0.111375347483 -0.053791716051 0
-0.115024259402 -0.0546167613157 0
-0.132279077027 -0.0677124586681 0
-0.137538965414 -0.069976391026 0
-0.185997548158 -0.153924922986 0
-0.149588543263 -0.0710239895761 0
-0.119133387107 -0.0466667286019 0
-0.183833014691 -0.0732617940574 0
-0.123687324733 -0.0574777955643 0
-0.126959426777 -0.0626458439116 0
-0.126610578221 -0.0527819637583 0
-0.191385678639 -0.0537643055139 0
-0.128939315758 -0.058851285759 0
-0.13106776671 -0.05688628298 0
-0.136071337748 -0.0521393750872 0
-0.119257054398 -0.0377648817572 0
-0.105058454454 -0.0362669902564 0
-0.0124561174372 -0.00130122102737 0
-0.0776196563456 -0.0185985517828 0
-0.0834637167355 0.00308662844132 0
-0.150174599059 -0.030929902844 0
-0.163729948328 0.00305133790377 0
-0.17716458946 -0.0435964398627 0
-0.127665319996 0.00110607224666 0
-0.188494686634 -0.147059491914 0
-0.118005470481 -0.0521572934549 0
-0.130215755374 -0.0636799711905 0
-0.113243413635 -0.0427674463191 0
-0.172698826085 -0.140120155286 0
-0.121272807314 -0.0549470514389 0
-0.144979301559 -0.0968428286472 0
-0.164962661057 -0.0814002284161 0
-0.177690606099 -0.0134046257923 0
-0.201792833128 -0.0116417763833 0
-0.124805549203 -0.0552632231053 0
-0.116765161759 -0.048951401293 0
-0.0472413996546 0.0186129038894 0
-0.014767090205 0.00793736209704 0
-0.162846757388 0.0281093260618 0
-0.125910132338 -0.0645079531261 0
-0.134282275827 -0.0419146020715 0
-0.14188016633 -0.092190171412 0
-0.20018631294 -0.156901626542 0
-0.149306330164 -0.0644422224187 0
-0.0115635807671 -0.0074247657344 0
-0.134872220203 -0.0795685204913 0
-0.110690014141 -0.0448973089993 0
-0.165259273675 -0.113653197053 0
-0.0509505549942 0.003022128822 0
-0.136145382542 -0.0250367612826 0
-0.185804704983 -0.117535981544 0
-0.0467164326907 -0.0151011248558 0
-0.0367302638763 -0.0043674871635 0
-0.126323790739 -0.0595427045792 0
-0.103538778132 -0.0514103384831 0
-0.129075505601 -0.0699171466141 0
-0.121817185975 -0.0561986367403 0
-0.127849047486 -0.0679531246557 0
-0.192846722578 -0.085259310906 0
-0.138911832755 -0.0603658451352 0
-0.0631675742005 -0.0355374455847 0
-0.165350999806 -0.0309168655164 0
-0.0720220315159 -0.0281484639508 0
-0.142026926779 -0.00877315460864 0
-0.10223367235 -0.0262423076263 0
-0.148034144798 -0.0902149938173 0
-0.180206094414 -0.141496563998 0
-0.130271185189 -0.061407301357 0
-0.118827872549 -0.0553692408161 0
-0.0886802102522 -0.0473000145747 0
-0.0809626162961 -0.0437690348148 0
-0.123626252392 -0.0613275750123 0
-0.126146205835 -0.0479183360643 0
-0.120829093676 -0.0576048073314 0
-0.121411786252 -0.058302655897 0
-0.203971106988 0.0278861044826 0
-0.109344185817 -0.0538782293771 0
-0.126640910641 -0.0392771298837 0
-0.195357191522 -0.111807853805 0
-0.136192354467 -0.0758324416985 0
-0.125441423896 -0.0603351889988 0
-0.122851728104 -0.0580377206785 0
-0.155844666719 -0.0632044443734 0
-0.170044601451 -0.10675294442 0
-0.139753839949 -0.0676220689747 0
-0.197079692993 -0.16220303582 0
-0.155922269986 -0.0982971577937 0
-0.122747418669 -0.0543163605354 0
-0.0975970956703 0.0109631263148 0
-0.0865700431643 0.0248383221586 0
-0.115505725282 -0.0534878506014 0
-0.154158568409 -0.0774195179008 0
-0.174243893668 -0.129859473364 0
-0.171987659952 -0.0906485110341 0
-0.155646658659 -0.0556402075954 0
-0.0704142122012 -0.00294027456795 0
-0.133520343196 -0.0631771378672 0
-0.113532438191 -0.0499705087014 0
-0.186259186296 -0.0962605244003 0
-0.117280316804 -0.0550407479511 0
-0.0283282646081 -0.0190830966003 0
-0.0645968830332 -0.0187881446883 0
-0.150293043678 -0.107336800462 0
-0.206681666441 -0.0417125968131 0
-0.118107897698 -0.0505938185761 0
-0.179080772375 -0.148149202974 0
-0.119518779609 -0.0562758958293 0
-0.142251303957 -0.0433904846131 0
-0.163885104757 -0.0530498309684 0
-0.112947736884 -0.0189284701108 0
-0.190349823296 -0.130232347728 0
-0.132943936008 0.0298071211281 0
-0.151366577563 -0.0861436282462 0
-0.120877413355 -0.0521650833247 0
-0.129187269715 -0.0305460177165 0
-0.0947544833944 -0.00488427233934 0
-0.166434556535 -0.132685314153 0
-0.106056705496 -0.0449614065744 0
-0.116405021847 -0.0447082349111 0
-0.149616450678 -0.0377244331851 0
-0.11438038389 -0.0354747082755 0
-0.115371512112 -0.0307034492275 0
-0.0816757994822 -0.0352007697044 0
-0.116671660799 -0.00903364550952 0
-0.13818483169 -0.0864034941973 0
-0.129703344803 -0.0671965811874 0
-0.122987391914 -0.0468818933604 0
-0.153568070502 -0.113050221977 0
-0.0940598051908 -0.0427464005159 0
-0.118275140105 -0.0533274160924 0
-0.160330041054 -0.0924046073234 0
-0.103129966634 -0.0190568018601 0
-0.135438786798 -0.0602120833876 0
-0.113326094506 -0.0545814362987 0
-0.206843080525 -0.0589424186558 0
-0.129004322999 -0.0549921712846 0
-0.0977810016615 -0.0508195590512 0
-0.138431973672 -0.0556361058809 0
-0.123897743115 -0.0597033647604 0
-0.124710827184 -0.056430131085 0
-0.130858615347 -0.0736666039422 0
-0.123021963595 -0.058861076224 0
-0.0914938366336 -0.025878466649 0
-0.14424280233 -0.0543341511607 0
-0.130768363589 -0.0489502172052 0
-0.0659797609927 0.027323170803 0
-0.14839907191 -0.0755497082598 0
-0.122349223604 -0.0596587611601 0
-0.098905967301 -0.0373382496613 0
-0.0533837355102 -0.0337200521151 0
-0.207342111702 -0.0843120009261 0
-0.120194679512 -0.0548151945356 0
-0.182611406915 0.0281720847479 0
-0.123367104059 -0.0420503828616 0
-0.138541443169 -0.0731320156932 0
-0.141886923885 -0.0804648149281 0
-0.109708264348 -0.0399487286633 0
-0.10295740129 -0.0466564385209 0
-0.140922713393 -0.0830148587968 0
-0.112879281268 0.00809101182843 0
-0.191392033303 -0.143424759349 0
-0.206988601108 0.00806060337341 0
-0.109644661876 -0.0494055399809 0
-0.115874954914 -0.0549798013526 0
-0.134608492342 -0.0462134901577 0
-0.11988201498 -0.0566458406616 0
-0.205485434827 -0.11868354107 0
-0.204253853208 -0.129905753395 0
-0.133025608365 -0.0700707043049 0
-0.188616852021 -0.156188105266 0
-0.11490226952 -0.049130067116 0
-0.116261791858 -0.0519313030762 0
-0.16167504272 -0.116034823419 0
-0.200491531375 -0.163370353696 0
-0.12095774715 -0.0564229337431 0
-0.156420556815 -0.105833362045 0
-0.122062885856 -0.0511262218762 0
-0.195397530427 -0.159810598184 0
-0.203131996062 -0.145287174448 0
-0.105471794158 -0.0531860003228 0
-0.121444683581 -0.0574548397179 0
-0.195570637878 -0.154647285885 0
-0.157790216502 -0.121444217474 0
-0.132473607017 -0.0549042062338 0
-0.1442241194 -0.0192541141527 0
-0.124780007387 -0.0633837995301 0
-0.193638792383 -0.158479059529 0
-0.144892701777 -0.0769849277709 0
-0.124928209934 -0.0584835190488 0
-0.116185432512 -0.041456203226 0
-0.145146538534 -0.0691523041888 0
-0.162764934977 -0.100325068413 0
-0.16354353919 -0.0701173247477 0
-0.170573299359 -0.066342632748 0
-0.109424066531 -0.0355146675902 0
-0.126976225188 -0.0642691525832 0
-0.118650923722 -0.0557094934122 0
-0.130629794562 -0.0655648349992 0
-0.00689421249637 0.00172034030264 0
-0.152580942582 -0.0999929297409 0
-0.187670996406 -0.151031178125 0
-0.11757340283 -0.0538787804351 0
-0.117718813549 -0.0259841042025 0
-0.132460323805 -0.0772808226432 0
-0.207793634399 -0.107541065812 0
-0.146379882397 -0.101657167288 0
-0.173859134545 -0.122109518322 0
-0.129451741598 -0.0573817684131 0
-0.121378722879 -0.0537704157286 0
-0.191191019429 -0.157408679015 0
-0.180603129557 -0.137000733084 0
-0.10549122018 -0.0499426748145 0
-0.174067312513 -0.143491829466 0
-0.118875537829 -0.0482193518481 0
-0.100993802689 -0.0518146858119 0
-0.165068373168 -0.0883494049869 0
-0.202849544608 -0.152144836904 0
-0.0295617597106 0.0175522188128 0
-0.180327222292 -0.121032099603 0
-0.125855493421 -0.0655058444686 0
-0.119555670757 -0.0521260389584 0
-0.126292315151 -0.054423758893 0
-0.135060510832 -0.0681767460923 0
-0.136979496855 -0.0667689348662 0
-0.128369382586 -0.0603197506159 0
-0.18571506474 -0.0616645253718 0
-0.122635640358 -0.0569970048859 0
-0.134529938229 -0.0813081398259 0
-0.13118929587 -0.036217662917 0
-0.201559979408 -0.160250036436 0
-0.124105555208 -0.0622688294342 0
-0.127449754077 -0.0578921551699 0
-0.175502186528 -0.0984557567515 0
-0.109161709728 -0.0466354010817 0
-0.149193195396 -0.0533216641061 0
-0.147067592899 -0.0826306374304 0
-0.119024470257 -0.0559936817743 0