# vtk DataFile Version 2.0
Generated with Solid Solver
ASCII
DATASET UNSTRUCTURED_GRID
POINTS 4484 float 
0.0 0.0 0.0
10.0 0.0 0.0
10.0 20.0 0.0
-20.0 20.0 0.0
-20.0 10.0 0.0
-5.0 10.0 0.0
0.0 5.0 0.0
1.11111111111 0.0 0.0
2.22222222222 0.0 0.0
3.33333333333 0.0 0.0
4.44444444444 0.0 0.0
5.55555555555 0.0 0.0
6.66666666666 0.0 0.0
7.77777777777 0.0 0.0
8.88888888889 0.0 0.0
10.0 1.17647058823 0.0
10.0 2.35294117647 0.0
10.0 3.5294117647 0.0
10.0 4.70588235293 0.0
10.0 5.88235294116 0.0
10.0 7.0588235294 0.0
10.0 8.23529411763 0.0
10.0 9.41176470587 0.0
10.0 10.5882352941 0.0
10.0 11.7647058823 0.0
10.0 12.9411764706 0.0
10.0 14.1176470588 0.0
10.0 15.2941176471 0.0
10.0 16.4705882353 0.0
10.0 17.6470588235 0.0
10.0 18.8235294118 0.0
8.8 20.0 0.0
7.6 20.0 0.0
6.39999999999 20.0 0.0
5.19999999999 20.0 0.0
4.0 20.0 0.0
2.8 20.0 0.0
1.6 20.0 0.0
0.400000000005 20.0 0.0
-0.79999999999 20.0 0.0
-1.99999999999 20.0 0.0
-3.19999999998 20.0 0.0
-4.39999999998 20.0 0.0
-5.59999999997 20.0 0.0
-6.79999999998 20.0 0.0
-7.99999999998 20.0 0.0
-9.19999999998 20.0 0.0
-10.4 20.0 0.0
-11.6 20.0 0.0
-12.8 20.0 0.0
-14.0 20.0 0.0
-15.2 20.0 0.0
-16.4 20.0 0.0
-17.6 20.0 0.0
-18.8 20.0 0.0
-20.0 18.8888888889 0.0
-20.0 17.7777777778 0.0
-20.0 16.6666666667 0.0
-20.0 15.5555555556 0.0
-20.0 14.4444444444 0.0
-20.0 13.3333333333 0.0
-20.0 12.2222222222 0.0
-20.0 11.1111111111 0.0
-18.848092502 10.0 0.0
-17.7828751182 10.0 0.0
-16.7978238296 10.0 0.0
-15.8869054316 10.0 0.0
-15.0445409688 10.0 0.0
-14.2655711094 10.0 0.0
-13.5452250657 10.0 0.0
-12.8790905124 10.0 0.0
-12.2630880938 10.0 0.0
-11.6934447292 10.0 0.0
-11.1666715362 10.0 0.0
-10.6795422524 10.0 0.0
-10.2290733255 10.0 0.0
-9.8125057789 10.0 0.0
-9.42728821879 10.0 0.0
-9.07106142797 10.0 0.0
-8.74164341353 10.0 0.0
-8.43701679755 10.0 0.0
-8.15531577579 10.0 0.0
-7.89481496543 10.0 0.0
-7.6539189469 10.0 0.0
-7.43115227515 10.0 0.0
-7.22515055976 10.0 0.0
-7.034652113 10.0 0.0
-6.85849015483 10.0 0.0
-6.69558581455 10.0 0.0
-6.54494132403 10.0 0.0
-6.40563404556 10.0 0.0
-6.27681073601 10.0 0.0
-6.15768239686 10.0 0.0
-6.04751944207 10.0 0.0
-5.94564710752 10.0 0.0
-5.85144146801 10.0 0.0
-5.76432558625 10.0 0.0
-5.68376583343 10.0 0.0
-5.60926885222 10.0 0.0
-5.54037836642 10.0 0.0
-5.47667244508 10.0 0.0
-5.41776089423 10.0 0.0
-5.36328290849 10.0 0.0
-5.31290482252 10.0 0.0
-5.2663180986 10.0 0.0
-5.22323738128 10.0 0.0
-5.18339883885 10.0 0.0
-5.14655846354 10.0 0.0
-5.11249061724 10.0 0.0
-5.08098665333 10.0 0.0
-5.05185360877 10.0 0.0
-5.02491306227 10.0 0.0
-4.97605502557 9.99994266349 0.0
-4.95211060031 9.99977065528 0.0
-4.92816727338 9.99948397931 0.0
-4.9042255939 9.99908264216 0.0
-4.88028611096 9.99856665303 0.0
-4.85634937362 9.99793602375 0.0
-4.83241593085 9.9971907688 0.0
-4.80848633155 9.99633090525 0.0
-4.78456112454 9.99535645284 0.0
-4.76064085854 9.99426743391 0.0
-4.73672608215 9.99306387343 0.0
-4.71281734383 9.99174579902 0.0
-4.68891519194 9.99031324089 0.0
-4.66502017466 9.98876623191 0.0
-4.64113284 9.98710480755 0.0
-4.61725373582 9.98532900592 0.0
-4.59338340977 9.98343886775 0.0
-4.56952240932 9.98143443638 0.0
-4.54567128169 9.97931575778 0.0
-4.52183057392 9.97708288056 0.0
-4.49800083277 9.97473585591 0.0
-4.47418260478 9.97227473767 0.0
-4.45037643619 9.96969958228 0.0
-4.42658287301 9.9670104488 0.0
-4.40280246092 9.9642073989 0.0
-4.37903574532 9.96129049688 0.0
-4.35528327129 9.95825980962 0.0
-4.33154558358 9.95511540664 0.0
-4.30782322661 9.95185736006 0.0
-4.28411674443 9.94848574459 0.0
-4.26042668076 9.94500063756 0.0
-4.23675357891 9.9414021189 0.0
-4.21309798181 9.93769027115 0.0
-4.189460432 9.93386517942 0.0
-4.16584147159 9.92992693145 0.0
-4.14224164227 9.92587561757 0.0
-4.11866148531 9.92171133068 0.0
-4.09510154149 9.91743416629 0.0
-4.07156235116 9.9130442225 0.0
-4.04804445418 9.90854159998 0.0
-4.02454838992 9.90392640202 0.0
-4.00107469726 9.89919873444 0.0
-3.97762391455 9.89435870568 0.0
-3.95419657964 9.88940642675 0.0
-3.93079322981 9.88434201122 0.0
-3.90741440182 9.87916557524 0.0
-3.88406063184 9.87387723754 0.0
-3.86073245549 9.86847711939 0.0
-3.83743040779 9.86296534465 0.0
-3.81415502316 9.85734203973 0.0
-3.79090683541 9.85160733359 0.0
-3.76768637774 9.84576135776 0.0
-3.74449418269 9.83980424632 0.0
-3.72133078217 9.83373613589 0.0
-3.69819670743 9.82755716563 0.0
-3.67509248902 9.82126747727 0.0
-3.65201865684 9.81486721504 0.0
-3.62897574008 9.80835652575 0.0
-3.60596426722 9.80173555871 0.0
-3.58298476602 9.79500446576 0.0
-3.56003776349 9.78816340129 0.0
-3.53712378594 9.78121252219 0.0
-3.51424335886 9.77415198787 0.0
-3.49139700703 9.76698196028 0.0
-3.46858525441 9.75970260384 0.0
-3.44580862417 9.75231408551 0.0
-3.4230676387 9.74481657474 0.0
-3.40036281955 9.73721024348 0.0
-3.37769468745 9.72949526618 0.0
-3.35506376227 9.72167181979 0.0
-3.33247056305 9.71374008372 0.0
-3.30991560796 9.7057002399 0.0
-3.28739941429 9.6975524727 0.0
-3.26492249843 9.68929696901 0.0
-3.24248537588 9.68093391814 0.0
-3.22008856124 9.67246351191 0.0
-3.19773256816 9.66388594459 0.0
-3.17541790937 9.65520141289 0.0
-3.15314509664 9.64641011599 0.0
-3.1309146408 9.63751225551 0.0
-3.10872705169 9.62850803553 0.0
-3.08658283818 9.61939766256 0.0
-3.06448250813 9.61018134553 0.0
-3.04242656841 9.60085929582 0.0
-3.02041552485 9.59143172722 0.0
-2.99844988229 9.58189885596 0.0
-2.97653014448 9.57226090067 0.0
-2.95465681415 9.56251808238 0.0
-2.93283039295 9.55267062456 0.0
-2.91105138147 9.54271875303 0.0
-2.8893202792 9.53266269606 0.0
-2.86763758453 9.52250268426 0.0
-2.84600379475 9.51223895065 0.0
-2.82441940602 9.50187173063 0.0
-2.80288491336 9.49140126197 0.0
-2.78140081067 9.48082778481 0.0
-2.75996759067 9.47015154163 0.0
-2.73858574493 9.4593727773 0.0
-2.71725576382 9.44849173903 0.0
-2.69597813655 9.43750867636 0.0
-2.67475335111 9.42642384119 0.0
-2.65358189428 9.41523748774 0.0
-2.63246425161 9.40394987257 0.0
-2.61140090744 9.39256125456 0.0
-2.59039234485 9.38107189489 0.0
-2.56943904565 9.36948205708 0.0
-2.5485414904 9.35779200693 0.0
-2.52770015838 9.34600201255 0.0
-2.50691552757 9.33411234434 0.0
-2.48618807468 9.32212327498 0.0
-2.46551827506 9.31003507943 0.0
-2.44490660277 9.29784803494 0.0
-2.42435353054 9.28556242101 0.0
-2.40385952974 9.2731785194 0.0
-2.38342507039 9.26069661414 0.0
-2.36305062115 9.24811699149 0.0
-2.3427366493 9.23543993996 0.0
-2.32248362072 9.22266575029 0.0
-2.30229199993 9.20979471547 0.0
-2.28216225 9.19682713066 0.0
-2.2620948326 9.1837632933 0.0
-2.24209020797 9.17060350297 0.0
-2.22214883491 9.15734806152 0.0
-2.20227117076 9.14399727293 0.0
-2.18245767141 9.13055144341 0.0
-2.16270879128 9.11701088133 0.0
-2.1430249833 9.10337589723 0.0
-2.12340669891 9.08964680384 0.0
-2.10385438805 9.07582391602 0.0
-2.08436849913 9.06190755079 0.0
-2.06494947907 9.04789802732 0.0
-2.04559777323 9.03379566692 0.0
-2.02631382544 9.01960079302 0.0
-2.00709807795 9.00531373116 0.0
-1.98795097149 8.99093480902 0.0
-1.96887294517 8.97646435637 0.0
-1.94986443656 8.96190270509 0.0
-1.93092588159 8.94725018914 0.0
-1.91205771462 8.93250714458 0.0
-1.89326036838 8.91767390952 0.0
-1.87453427399 8.90275082416 0.0
-1.85587986091 8.88773823076 0.0
-1.83729755698 8.87263647363 0.0
-1.81878778837 8.85744589911 0.0
-1.80035097961 8.84216685561 0.0
-1.78198755353 8.82679969353 0.0
-1.76369793129 8.81134476531 0.0
-1.74548253235 8.79580242541 0.0
-1.72734177448 8.78017303029 0.0
-1.70927607373 8.7644569384 0.0
-1.69128584443 8.74865451019 0.0
-1.67337149918 8.73276610807 0.0
-1.65553344883 8.71679209643 0.0
-1.6377721025 8.70073284165 0.0
-1.62008786753 8.68458871202 0.0
-1.6024811495 8.66836007781 0.0
-1.58495235222 8.65204731122 0.0
-1.56750187771 8.63565078637 0.0
-1.55013012618 8.61917087932 0.0
-1.53283749605 8.60260796801 0.0
-1.51562438391 8.58596243232 0.0
-1.49849118455 8.569234654 0.0
-1.4814382909 8.5524250167 0.0
-1.46446609407 8.53553390594 0.0
-1.44757498331 8.51856170911 0.0
-1.43076534601 8.50150881547 0.0
-1.41403756769 8.4843756161 0.0
-1.397392032 8.46716250397 0.0
-1.3808291207 8.44986987383 0.0
-1.36434921364 8.4324981223 0.0
-1.34795268879 8.41504764779 0.0
-1.3316399222 8.39751885051 0.0
-1.31541128799 8.37991213249 0.0
-1.29926715836 8.36222789752 0.0
-1.28320790358 8.34446655118 0.0
-1.26723389195 8.32662850083 0.0
-1.25134548982 8.30871415558 0.0
-1.23554306161 8.29072392628 0.0
-1.21982696972 8.27265822553 0.0
-1.2041975746 8.25451746766 0.0
-1.1886552347 8.23630206872 0.0
-1.17320030649 8.21801244648 0.0
-1.1578331444 8.1996490204 0.0
-1.1425541009 8.18121221164 0.0
-1.12736352638 8.16270244304 0.0
-1.11226176925 8.14412013911 0.0
-1.09724917585 8.12546572603 0.0
-1.08232609049 8.10673963163 0.0
-1.06749285543 8.08794228539 0.0
-1.05274981087 8.06907411842 0.0
-1.03809729492 8.05013556346 0.0
-1.02353564364 8.03112705484 0.0
-1.00906519099 8.01204902852 0.0
-0.994686268851 7.99290192206 0.0
-0.980399206994 7.97368617458 0.0
-0.966204333087 7.95440222678 0.0
-0.952101972685 7.93505052094 0.0
-0.938092449219 7.91563150088 0.0
-0.924176083992 7.89614561196 0.0
-0.91035319617 7.8765933011 0.0
-0.896624102777 7.85697501671 0.0
-0.882989118683 7.83729120873 0.0
-0.869448556601 7.8175423286 0.0
-0.856002727079 7.79772882925 0.0
-0.842651938491 7.7778511651 0.0
-0.829396497032 7.75790979204 0.0
-0.816236706712 7.73790516741 0.0
-0.803172869344 7.71783775001 0.0
-0.790205284542 7.69770800008 0.0
-0.777334249712 7.67751637929 0.0
-0.764560060048 7.65726335072 0.0
-0.751883008519 7.63694937886 0.0
-0.739303385869 7.61657492962 0.0
-0.726821480606 7.59614047027 0.0
-0.714437578999 7.57564646947 0.0
-0.702151965067 7.55509339724 0.0
-0.689964920575 7.53448172495 0.0
-0.677876725029 7.51381192533 0.0
-0.665887655667 7.49308447244 0.0
-0.653997987453 7.47229984163 0.0
-0.642207993071 7.45145850961 0.0
-0.630517942922 7.43056095436 0.0
-0.618928105111 7.40960765516 0.0
-0.607438745448 7.38859909257 0.0
-0.596050127435 7.3675357484 0.0
-0.584762512266 7.34641810573 0.0
[...]
POINT_DATA 4484
VECTORS Displacement float
0.0 0.0 0
0.0 0.0 0
-0.927403289544 0.199461489306 0
-0.8 -0.709574497302 0
-0.8 -0.680856528655 0
-0.541684182239 -0.431281127085 0
-0.185026170598 -0.15773583312 0
0.0 0.0 0
0.0 0.0 0
0.0 0.0 0
0.0 0.0 0
0.0 0.0 0
0.0 0.0 0
0.0 0.0 0
0.0 0.0 0
-0.0480710199952 0.0466090483856 0
-0.0860425242987 0.0846946749897 0
-0.128376003034 0.115562189943 0
-0.176940066906 0.141538692532 0
-0.229363420378 0.163413197516 0
-0.287072701778 0.180492134129 0
-0.346289374307 0.192422704399 0
-0.407298368826 0.200276182354 0
-0.468329882649 0.205233036495 0
-0.528713486241 0.207605757585 0
-0.588492062047 0.207976523927 0
-0.64701632562 0.207179034851 0
-0.704344427314 0.205696192359 0
-0.760794100842 0.203933272593 0
-0.816471591361 0.202323589085 0
-0.871962048388 0.20080027339 0
-0.926027965683 0.14282816136 0
-0.924470802612 0.0862157833945 0
-0.922779227675 0.0298925275638 0
-0.92093000081 -0.0260759077176 0
-0.918995477025 -0.0815100034596 0
-0.916631250431 -0.136409994788 0
-0.914026248714 -0.190630699892 0
-0.910780169476 -0.243627017247 0
-0.906598856485 -0.295475955846 0
-0.901817489081 -0.34516389666 0
-0.896109919686 -0.392503804575 0
-0.889153769873 -0.436938804111 0
-0.882439077682 -0.478341728157 0
-0.875062692195 -0.515934887386 0
-0.867682316761 -0.550242085293 0
-0.8598740346 -0.580615081452 0
-0.853113928012 -0.608569549549 0
-0.845767094248 -0.632348545835 0
-0.839085415978 -0.652848666311 0
-0.83214742512 -0.670079645216 0
-0.825656525481 -0.684440973134 0
-0.819253434372 -0.695446463439 0
-0.812887869871 -0.703417326869 0
-0.80640227569 -0.708230012642 0
-0.8 -0.711525504138 0
-0.8 -0.712621148794 0
-0.8 -0.712431882553 0
-0.8 -0.710280373014 0
-0.8 -0.706935926789 0
-0.8 -0.702415073349 0
-0.8 -0.695754592277 0
-0.8 -0.689328834986 0
-0.780492919224 -0.679354199915 0
-0.763024095863 -0.674878477224 0
-0.746097792713 -0.669233439205 0
-0.730595453694 -0.661781289679 0
-0.716438039135 -0.653248392425 0
-0.703179907464 -0.643931906227 0
-0.69110757517 -0.634089799353 0
-0.679809862682 -0.623958576587 0
-0.669249452755 -0.613758673447 0
-0.659595167911 -0.603488910558 0
-0.650602494853 -0.593364010359 0
-0.642353316161 -0.58352484321 0
-0.634725808746 -0.573835673748 0
-0.627586760969 -0.564565311238 0
-0.621051254132 -0.555647296624 0
-0.614978336921 -0.54714328325 0
-0.609333197203 -0.538988829696 0
-0.604075948224 -0.53124509961 0
-0.599258666998 -0.523955539893 0
-0.594756891268 -0.517004414885 0
-0.590577838654 -0.510467423086 0
-0.586717588045 -0.504326411074 0
-0.58311535244 -0.498572690479 0
-0.57976757064 -0.49315261609 0
-0.576656598883 -0.488078876119 0
-0.573775676203 -0.483341688079 0
-0.571094196556 -0.478909911254 0
-0.568589377768 -0.474788061476 0
-0.566262108436 -0.470938039156 0
-0.564093391622 -0.467347881322 0
-0.562074100882 -0.464009881934 0
-0.56019822289 -0.460898115009 0
-0.558449433741 -0.458008431313 0
-0.556823056465 -0.455317882017 0
-0.555304339277 -0.452827875352 0
-0.553889522912 -0.450508538255 0
-0.552570909256 -0.448358623055 0
-0.551340678799 -0.446364471169 0
-0.550195316 -0.444515609386 0
-0.549128473105 -0.44279932566 0
-0.548133192997 -0.441211665036 0
-0.547203407812 -0.43974090087 0
-0.546335670953 -0.438375266652 0
-0.545527289696 -0.437114346208 0
-0.54477322982 -0.43594529748 0
-0.544068731827 -0.434863992686 0
-0.543411409887 -0.433861952117 0
-0.542796557499 -0.432933032668 0
-0.542221432325 -0.432075005446 0
-0.541158317721 -0.430514161903 0
-0.540620762346 -0.429747629349 0
-0.540076030285 -0.428975708679 0
-0.539521051942 -0.428203396128 0
-0.538960660266 -0.427425627434 0
-0.53839110186 -0.426647635864 0
-0.537815966378 -0.425865314044 0
-0.537232444917 -0.425082215915 0
-0.536642174311 -0.424294293274 0
-0.536044940274 -0.42350429134 0
-0.535443785119 -0.422714363801 0
-0.534835424117 -0.421918504257 0
-0.534219036391 -0.421122148663 0
-0.533598288305 -0.420322044454 0
-0.532969933853 -0.419520174572 0
-0.532337489971 -0.418716232272 0
-0.531699652251 -0.41791151263 0
-0.531055671349 -0.417100909131 0
-0.530404423211 -0.416290996274 0
-0.529747142392 -0.415477150341 0
-0.529084113027 -0.41466086785 0
-0.528417527054 -0.413845137894 0
-0.527745895484 -0.413024878352 0
-0.527069277441 -0.412202902598 0
-0.526385758885 -0.411378180648 0
-0.525695760698 -0.410552656314 0
-0.525002671165 -0.409724452476 0
-0.524303086495 -0.408894292623 0
-0.523600381164 -0.408062044606 0
-0.522889751274 -0.407229156625 0
-0.522174592057 -0.406393180653 0
-0.521455851344 -0.405554241502 0
-0.520729998664 -0.404714573679 0
-0.52000109037 -0.403872987736 0
-0.519264853888 -0.403029477859 0
-0.518526670685 -0.402185178592 0
-0.517782846005 -0.401334634233 0
-0.517032612265 -0.400487029382 0
-0.516277584126 -0.399636190673 0
-0.515518070621 -0.398782967345 0
-0.514754907552 -0.397928142912 0
-0.5139854377 -0.397071602133 0
-0.513212768772 -0.396213449527 0
-0.512434748191 -0.395352695076 0
-0.511653862322 -0.394493373563 0
-0.510867870893 -0.393630238028 0
-0.510073984988 -0.392766681578 0
-0.509278205713 -0.391900195788 0
-0.508476672544 -0.391033391345 0
-0.507672290032 -0.390165807288 0
-0.506861320796 -0.389295195445 0
-0.506045223906 -0.388422872169 0
-0.505227266196 -0.38755075321 0
-0.504402368265 -0.386676272355 0
-0.503574793147 -0.385799095329 0
-0.502744573872 -0.384922346246 0
-0.501906815615 -0.384045406639 0
-0.501066318974 -0.383166105946 0
-0.500219212343 -0.382285604293 0
-0.499369278626 -0.381403428515 0
-0.49851372974 -0.380519281274 0
-0.497655947182 -0.379635008196 0
-0.496790517648 -0.378748883123 0
-0.495923497144 -0.377863063519 0
-0.495053569171 -0.376974824774 0
-0.494177800262 -0.376084730691 0
-0.493296170709 -0.375195339473 0
-0.49241312913 -0.374305030553 0
-0.491522775894 -0.373412826587 0
-0.490632062011 -0.372521740122 0
-0.48973648655 -0.371626240372 0
-0.48883365497 -0.37073172973 0
-0.48792873855 -0.36983544636 0
-0.487017626092 -0.36893732705 0
-0.486104910757 -0.368040162111 0
-0.485187975225 -0.367139278934 0
-0.484265001608 -0.366240263734 0
-0.483340241212 -0.365339254112 0
-0.482409942773 -0.364438252437 0
-0.481476818218 -0.363537469605 0
-0.480537621934 -0.362634984931 0
-0.479596820543 -0.361732493408 0
-0.478649581561 -0.360827798416 0
-0.477701053727 -0.359924163847 0
-0.476748494466 -0.359017654936 0
-0.475790271444 -0.358112332758 0
-0.474828446718 -0.357206479291 0
-0.473862782851 -0.356298480195 0
-0.472894271204 -0.35539110775 0
-0.471919629188 -0.354482328704 0
-0.470943889203 -0.353573834834 0
-0.469962377261 -0.352664986334 0
-0.468978764821 -0.351756419831 0
-0.467988353424 -0.350846495159 0
-0.466995195244 -0.3499359336 0
-0.466001067177 -0.349023972236 0
-0.46500174289 -0.348112605954 0
-0.463997115595 -0.3472014203 0
-0.462991303926 -0.346289951742 0
-0.461979556307 -0.345378333825 0
-0.460965330793 -0.344466415397 0
-0.459945570293 -0.343553250068 0
-0.45892444251 -0.342640579085 0
-0.457897972974 -0.341726376524 0
-0.456870409452 -0.340813941519 0
-0.455835565534 -0.33990056979 0
-0.454799644107 -0.338987049962 0
-0.453758750161 -0.338073475384 0
-0.452714104998 -0.337159873032 0
-0.451664929653 -0.336243908464 0
-0.450616035157 -0.335331655452 0
-0.449562119844 -0.334416690769 0
-0.448501996854 -0.333502014937 0
-0.447440730262 -0.332587525775 0
-0.446374132851 -0.331672573611 0
-0.44530517345 -0.330756435763 0
-0.444234883198 -0.329841852871 0
-0.443160146079 -0.328927447822 0
-0.44208034821 -0.32801223792 0
-0.440998329241 -0.327100593953 0
-0.439913677673 -0.326187319292 0
-0.438823778204 -0.325273909169 0
-0.437729914009 -0.324359263503 0
-0.436635230366 -0.323445516558 0
-0.435534474943 -0.322531396531 0
-0.434432237662 -0.321618625734 0
-0.433328263838 -0.320704864845 0
-0.432220069707 -0.319792050648 0
-0.431106697039 -0.318880290988 0
-0.429992584498 -0.317968801332 0
-0.428872749643 -0.317057216086 0
-0.427751255916 -0.316145765598 0
-0.426624815976 -0.315233382866 0
-0.425497661507 -0.314322368574 0
-0.424366049779 -0.313410619564 0
-0.423232623819 -0.312501186107 0
-0.42209687239 -0.311591068688 0
-0.420956553174 -0.310680425342 0
-0.419813371611 -0.30977228791 0
-0.418666663908 -0.308864839588 0
-0.4175158483 -0.307955814267 0
-0.416363798455 -0.307049053673 0
-0.415208189703 -0.306141404512 0
-0.414051199444 -0.305234288757 0
-0.412890087467 -0.304327156944 0
-0.411723951843 -0.303421291788 0
-0.410557476091 -0.302515675758 0
-0.409386826808 -0.301610597121 0
-0.408214955171 -0.300707552041 0
-0.407038148692 -0.299803495904 0
-0.405861612063 -0.298901518164 0
-0.40468033306 -0.297998787814 0
-0.403498195948 -0.297098311112 0
-0.40231071797 -0.296197329759 0
-0.401122946831 -0.295297923505 0
-0.39992920712 -0.294397064215 0
-0.398735798845 -0.2934979165 0
-0.397538214959 -0.292599113642 0
-0.396339784247 -0.291702892061 0
-0.395136550847 -0.290806231744 0
-0.393932498618 -0.28991141219 0
-0.39272314274 -0.28901538057 0
-0.391514247632 -0.28812151045 0
-0.390301111722 -0.287227941226 0
-0.389086792974 -0.286335116566 0
-0.387869624041 -0.285441923337 0
-0.386649725045 -0.284550303359 0
-0.385428141327 -0.283660231212 0
-0.384202559367 -0.282769713231 0
-0.382976856795 -0.281881784256 0
-0.381746496005 -0.280993043453 0
-0.380516517666 -0.280106819031 0
-0.379281263774 -0.27922038336 0
-0.378045222537 -0.278334866085 0
-0.376808152701 -0.277450116167 0
-0.37556676676 -0.276565328433 0
-0.374325228509 -0.275682883016 0
-0.373079462224 -0.274800047827 0
-0.37183421072 -0.273919560076 0
-0.37058505548 -0.273039058488 0
-0.36933572462 -0.272161089074 0
-0.368082427286 -0.271282867605 0
-0.366827688206 -0.270406360098 0
-0.365572073842 -0.269529959407 0
-0.364314016517 -0.268654553221 0
-0.363052709381 -0.267779873187 0
-0.361791676984 -0.266906880363 0
-0.360526310762 -0.266033709859 0
-0.359260515556 -0.265162198438 0
-0.357994794692 -0.264291777418 0
-0.356725331602 -0.263423061945 0
-0.35545558673 -0.26255495286 0
-0.354181189474 -0.261686396452 0
-0.352907227451 -0.260820244418 0
-0.351632300717 -0.259954258867 0
-0.350356574468 -0.259089793676 0
-0.349077194958 -0.258226379462 0
-0.347799170735 -0.257365731735 0
-0.346516424068 -0.256504781594 0
-0.345233977326 -0.255645232544 0
-0.343950879026 -0.254786824339 0
-0.342664217923 -0.253928903133 0
-0.341378535506 -0.253073525162 0
-0.340090446669 -0.252218437132 0
-0.338801307934 -0.251364657862 0
-0.337510237062 -0.250510634792 0
-0.336219652223 -0.249659821305 0
-0.33492536901 -0.248808038026 0
-0.333631977442 -0.247958917745 0
-0.332338182741 -0.247110484099 0
-0.331041427008 -0.24626267228 0
-0.329744936017 -0.245417094103 0
-0.328448014766 -0.24457171863 0
-0.327148687346 -0.243727278002 0
-0.325848798348 -0.242885538856 0
-0.324549046215 -0.242044194232 0
-0.323248396183 -0.241203502998 0
-0.321945215018 -0.240363766831 0
-0.320643802009 -0.239526485259 0
-0.319339176214 -0.238688891253 0
-0.318036155725 -0.237854003481 0
-0.316732344308 -0.237019895885 0
-0.315427975926 -0.236187576677 0
-0.31412281406 -0.235356545054 0
-0.312815131637 -0.234524344152 0
-0.311509883913 -0.233695621208 0
-0.310201371588 -0.232866022246 0
-0.308895499991 -0.232039918944 0
-0.307586588453 -0.23121263761 0
-0.30628079548 -0.23038840594 0
-0.304972201712 -0.229563956709 0
-0.303665385761 -0.228742260758 0
-0.302357003518 -0.227921062289 0
-0.301048872328 -0.227102118098 0
-0.29974134604 -0.226284433542 0
-0.298433169676 -0.225466838778 0
-0.297125014454 -0.224650744304 0
-0.295818465886 -0.223837207303 0
-0.29450941036 -0.223022949999 0
-0.293203142985 -0.222211982622 0
-0.291894452494 -0.221399938885 0
-0.290589404714 -0.220591167963 0
-0.289282056004 -0.219782360982 0
-0.287977683745 -0.218977033522 0
-0.286670457444 -0.21817018529 0
-0.285367460189 -0.217366479986 0
-0.28406161742 -0.216562627982 0
-0.282758004575 -0.215761824085 0
-0.281452945712 -0.214959949848 0
-0.280152819274 -0.214162995449 0
-0.278849821326 -0.213365061971 0
-0.277550403347 -0.212570448562 0
-0.276249054584 -0.211775239823 0
-0.274951065454 -0.210982560611 0
-0.273652008156 -0.210189368978 0
-0.27235336411 -0.209398291534 0
-0.271058030817 -0.208609808627 0
-0.269763725875 -0.207823510034 0
-0.268472775908 -0.207037501858 0
-0.267179019508 -0.206252298442 0
-0.26588731352 -0.205470808545 0
-0.264596777558 -0.204688841585 0
-0.263308321233 -0.20390889753 0
-0.262022515644 -0.203132042292 0
-0.260734969354 -0.202354031784 0
-0.259452245265 -0.201579204964 0
-0.258168813694 -0.200804257307 0
-0.256890272274 -0.200033177235 0
-0.255609098455 -0.199262406619 0
-0.254330453626 -0.1984949574 0
-0.25305236345 -0.197727155481 0
-0.251776761084 -0.196960602348 0
-0.250505894057 -0.196196040241 0
-0.249235435773 -0.195432008546 0
-0.247967056415 -0.194670962028 0
-0.246701290845 -0.193914259628 0
-0.24543902586 -0.193157389681 0
-0.244174222883 -0.192400502899 0
-0.242916163944 -0.19164804099 0
-0.241657056024 -0.190896052334 0
-0.240399769543 -0.19014737182 0
-0.239145856694 -0.189396585427 0
-0.237896838418 -0.188649393862 0
-0.236645275101 -0.187906057883 0
-0.235400512419 -0.18716459661 0
-0.234156145649 -0.186421396228 0
-0.232916109708 -0.185683556924 0
-0.231680553547 -0.184948219514 0
-0.230443688588 -0.184211778256 0
-0.22921047731 -0.183478927554 0
-0.227981664193 -0.182748755422 0
-0.226753274556 -0.182017873371 0
-0.225530335858 -0.18129196618 0
-0.224308288189 -0.180565565511 0
-0.223092376479 -0.179844106539 0
-0.221877009989 -0.179122407095 0
-0.22066780158 -0.178404559701 0
-0.219462135123 -0.177688976958 0
-0.218258078462 -0.176977670468 0
-0.217054678045 -0.17626984751 0
-0.215857668764 -0.175564998368 0
-0.214660837373 -0.174858869692 0
-0.213471520766 -0.174158207199 0
-0.21228182724 -0.17345676375 0
-0.211097889903 -0.17276038872 0
-0.209916500225 -0.172064046517 0
-0.208741051927 -0.171373313817 0
-0.207567762157 -0.170682874779 0
-0.206399717864 -0.16999785346 0
-0.205235248381 -0.169314635025 0
-0.204075942678 -0.168636863499 0
-0.20291922255 -0.167958417784 0
-0.201767844525 -0.167285709463 0
-0.200617160353 -0.166617600456 0
-0.19947541332 -0.165953691551 0
-0.198336816609 -0.165289690323 0
-0.197203983151 -0.164634645056 0
-0.196075408775 -0.163981860623 0
-0.194949847521 -0.163330343961 0
-0.193830134114 -0.162688027279 0
-0.192712401521 -0.16204917445 0
-0.191599011154 -0.16141536684 0
-0.190491505056 -0.160784010877 0
-0.189389384399 -0.160161068857 0
-0.188293308782 -0.159543699153 0
-0.18719954525 -0.15893487861 0
-0.186110273079 -0.158330630986 0
-0.183837034194 -0.15708612216 0
-0.182342043339 -0.156275266636 0
-0.180468583765 -0.155259539102 0
-0.178117161151 -0.153987574981 0
-0.175171669215 -0.152389811985 0
-0.171483200122 -0.150369994771 0
-0.166896408143 -0.147803528105 0
-0.161191759208 -0.144561890448 0
-0.154120592176 -0.140460968641 0
-0.145405191041 -0.135140069469 0
-0.134687517609 -0.128338536718 0
-0.121673841313 -0.119543571603 0
-0.106125963581 -0.108120818482 0
-0.0878860735606 -0.0924788557091 0
-0.0665901605509 -0.0718107696516 0
-0.0411803195283 -0.0438053399664 0
-0.609186681999 -0.0967800454618 0
-0.334511476769 -0.0133023754464 0
-0.69818197623 -0.326651629614 0
-0.719853766513 -0.507050072984 0
-0.456787824817 -0.139026232432 0
-0.564898228708 -0.269982849287 0
-0.615129398253 -0.384373001554 0
-0.307468405298 -0.098413584093 0
-0.166937218833 -0.0574939517169 0
-0.639846419916 -0.475232086824 0
-0.381301610532 -0.171626101446 0
-0.471096895238 -0.239822957114 0
-0.517450183612 -0.310139972744 0
-0.554234690539 -0.369833895429 0
-0.59069937628 -0.427243415157 0
-0.301480397249 -0.149477204235 0
-0.223439370691 -0.11179806945 0
-0.343930652052 -0.193270269485 0
-0.40078839895 -0.225863735519 0
-0.437106432328 -0.265768443352 0
-0.472803904844 -0.303263816746 0
-0.499967109757 -0.335826416941 0
-0.518958534184 -0.365349996451 0
-0.545300028495 -0.395747687344 0
-0.560706147512 -0.424053086136 0
-0.587998310135 -0.459182079504 0
-0.255210471319 -0.148467194907 0
-0.300625071506 -0.182713979911 0
-0.213528192549 -0.137065351937 0
-0.36184088272 -0.224522509771 0
-0.385673892132 -0.247465435867 0
-0.408284679885 -0.267525912763 0
-0.272347292465 -0.177207488397 0
-0.174035844239 -0.121072045214 0
-0.428175748383 -0.286132607934 0
-0.446599030757 -0.304285501505 0
-0.468230852501 -0.322119063728 0
-0.321073756476 -0.207158240004 0
-0.565530842097 -0.442009004608 0
-0.522415143478 -0.383008360895 0
-0.530105394731 -0.397902348498 0
-0.541234522155 -0.412693506559 0
-0.548352666453 -0.425377836596 0
-0.24694254921 -0.168671447317 0
-0.67758808853 -0.556024240228 0
-0.335692960692 -0.223758957699 0
-0.479098784199 -0.338247939127 0
-0.495739159903 -0.354772866559 0
-0.226288866669 -0.160307107823 0
-0.504274699648 -0.368566453747 0
-0.30024388239 -0.203127506811 0
-0.282123975292 -0.194571670723 0
-0.619169971823 -0.502724212892 0
-0.207024305227 -0.15227214385 0
-0.188101055223 -0.14269896501 0
-0.349949389743 -0.237671662795 0
-0.364421371465 -0.247898100755 0
-0.741815285517 -0.643112007011 0
-0.377137912526 -0.258986678346 0
-0.39009970426 -0.268768816766 0
-0.551722682693 -0.434121839776 0
-0.400067077771 -0.278504839675 0
-0.411688585508 -0.287336585524 0
-0.422668853757 -0.295932953316 0
-0.507847016503 -0.377780919222 0
-0.513705224065 -0.386446605747 0
-0.449696158021 -0.316757589702 0
-0.457395972204 -0.326775347037 0
-0.269002482908 -0.191677123291 0
-0.256372634647 -0.185153832156 0
-0.30876610104 -0.216048662449 0
-0.320942018591 -0.22340837768 0
-0.530202067456 -0.405074104837 0
-0.480588450066 -0.348463830093 0
-0.570900305007 -0.456318014301 0
-0.430392140319 -0.304444515712 0
-0.519312549011 -0.393672607411 0
-0.464471780153 -0.335199094106 0
-0.486490804856 -0.35694047446 0
-0.533293630756 -0.411828648515 0
-0.537965997823 -0.418380296745 0
-0.5580128338 -0.443940147387 0
-0.245030775134 -0.180704897789 0
-0.234453484377 -0.174844148266 0
-0.588948905295 -0.479376338134 0
-0.113974771425 -0.0706996124648 0
-0.470480709491 -0.342620042023 0
-0.49166723916 -0.363850014446 0
-0.437211734488 -0.311959393738 0
-0.54119430018 -0.42400407234 0
-0.290246569911 -0.206777928181 0
-0.338239864676 -0.237073583193 0
-0.299588715374 -0.214357678296 0
-0.225281860744 -0.171793068799 0
-0.215029249288 -0.164404352932 0
-0.327936444441 -0.232175249739 0
-0.498947943854 -0.372371861524 0
-0.198769970877 -0.155073361019 0
-0.581308574345 -0.332951962044 0
-0.281264857937 -0.204731079174 0
-0.155889243142 0.0299032830482 0
-0.35237809808 -0.24746394248 0
-0.521542567732 -0.399037442281 0
-0.543464201796 -0.428550071777 0
-0.690689393642 -0.441822804805 0
-0.762423169575 -0.595320177945 0
-0.691657381759 -0.606168640512 0
-0.635921786635 -0.53859282554 0
-0.546871174458 -0.433227322587 0
-0.366170816526 -0.258634086976 0
-0.168469673205 -0.132027344412 0
-0.478367928614 -0.0444285413485 0
-0.190620258424 -0.152705603104 0
-0.181180089906 -0.146818074696 0
-0.379305678102 -0.267222484442 0
-0.654743740324 -0.214719016735 0
-0.375027022563 -0.199950234943 0
-0.447984649719 -0.323607705209 0
-0.432870762783 -0.19810421061 0
-0.208265996004 -0.163226886106 0
-0.343463112053 -0.243701144073 0
-0.520411353237 -0.201685015256 0
-0.57844114871 -0.397638025614 0
-0.35734712835 -0.254295714794 0
-0.532853146531 -0.348771491312 0
-0.390457841063 -0.276703104533 0
-0.311990819605 -0.224306167441 0
-0.371678599519 -0.264402659052 0
-0.506090337046 -0.381803376584 0
-0.440344790061 -0.31810851015 0
-0.500940272277 -0.37710220751 0
-0.52409217669 -0.403361489746 0
-0.527306511925 -0.407628622371 0
-0.274589499143 -0.202153896873 0
-0.383234379255 -0.117769141401 0
-0.639672159665 -0.434522309283 0
-0.453055373424 -0.287023822948 0
-0.767145105826 -0.688787323489 0
-0.539071598429 -0.378821144021 0
-0.400995121811 -0.285766980043 0
-0.241875295283 -0.0323476991151 0
-0.412992293153 -0.29493037178 0
-0.483755637587 -0.273928504568 0
-0.261734974857 -0.193963319922 0
-0.760700861 -0.128392794892 0
-0.704770934116 0.0319752877882 0