# vtk DataFile Version 2.0
Generated with Solid Solver
ASCII
DATASET UNSTRUCTURED_GRID
POINTS 4484 float 
0.0 0.0 0.0
10.0 0.0 0.0
10.0 20.0 0.0
-20.0 20.0 0.0
-20.0 10.0 0.0
-5.0 10.0 0.0
0.0 5.0 0.0
1.11111111111 0.0 0.0
2.22222222222 0.0 0.0
3.33333333333 0.0 0.0
4.44444444444 0.0 0.0
5.55555555555 0.0 0.0
6.66666666666 0.0 0.0
7.77777777777 0.0 0.0
8.88888888889 0.0 0.0
10.0 1.17647058823 0.0
10.0 2.35294117647 0.0
10.0 3.5294117647 0.0
10.0 4.70588235293 0.0
10.0 5.88235294116 0.0
10.0 7.0588235294 0.0
10.0 8.23529411763 0.0
10.0 9.41176470587 0.0
10.0 10.5882352941 0.0
10.0 11.7647058823 0.0
10.0 12.9411764706 0.0
10.0 14.1176470588 0.0
10.0 15.2941176471 0.0
10.0 16.4705882353 0.0
10.0 17.6470588235 0.0
10.0 18.8235294118 0.0
8.8 20.0 0.0
7.6 20.0 0.0
6.39999999999 20.0 0.0
5.19999999999 20.0 0.0
4.0 20.0 0.0
2.8 20.0 0.0
1.6 20.0 0.0
0.400000000005 20.0 0.0
-0.79999999999 20.0 0.0
-1.99999999999 20.0 0.0
-3.19999999998 20.0 0.0
-4.39999999998 20.0 0.0
-5.59999999997 20.0 0.0
-6.79999999998 20.0 0.0
-7.99999999998 20.0 0.0
-9.19999999998 20.0 0.0
-10.4 20.0 0.0
-11.6 20.0 0.0
-12.8 20.0 0.0
-14.0 20.0 0.0
-15.2 20.0 0.0
-16.4 20.0 0.0
-17.6 20.0 0.0
-18.8 20.0 0.0
-20.0 18.8888888889 0.0
-20.0 17.7777777778 0.0
-20.0 16.6666666667 0.0
-20.0 15.5555555556 0.0
-20.0 14.4444444444 0.0
-20.0 13.3333333333 0.0
-20.0 12.2222222222 0.0
-20.0 11.1111111111 0.0
-18.848092502 10.0 0.0
-17.7828751182 10.0 0.0
-16.7978238296 10.0 0.0
-15.8869054316 10.0 0.0
-15.0445409688 10.0 0.0
-14.2655711094 10.0 0.0
-13.5452250657 10.0 0.0
-12.8790905124 10.0 0.0
-12.2630880938 10.0 0.0
-11.6934447292 10.0 0.0
-11.1666715362 10.0 0.0
-10.6795422524 10.0 0.0
-10.2290733255 10.0 0.0
-9.8125057789 10.0 0.0
-9.42728821879 10.0 0.0
-9.07106142797 10.0 0.0
-8.74164341353 10.0 0.0
-8.43701679755 10.0 0.0
-8.15531577579 10.0 0.0
-7.89481496543 10.0 0.0
-7.6539189469 10.0 0.0
-7.43115227515 10.0 0.0
-7.22515055976 10.0 0.0
-7.034652113 10.0 0.0
-6.85849015483 10.0 0.0
-6.69558581455 10.0 0.0
-6.54494132403 10.0 0.0
-6.40563404556 10.0 0.0
-6.27681073601 10.0 0.0
-6.15768239686 10.0 0.0
-6.04751944207 10.0 0.0
-5.94564710752 10.0 0.0
-5.85144146801 10.0 0.0
-5.76432558625 10.0 0.0
-5.68376583343 10.0 0.0
-5.60926885222 10.0 0.0
-5.54037836642 10.0 0.0
-5.47667244508 10.0 0.0
-5.41776089423 10.0 0.0
-5.36328290849 10.0 0.0
-5.31290482252 10.0 0.0
-5.2663180986 10.0 0.0
-5.22323738128 10.0 0.0
-5.18339883885 10.0 0.0
-5.14655846354 10.0 0.0
-5.11249061724 10.0 0.0
-5.08098665333 10.0 0.0
-5.05185360877 10.0 0.0
-5.02491306227 10.0 0.0
-4.97605502557 9.99994266349 0.0
-4.95211060031 9.99977065528 0.0
-4.92816727338 9.99948397931 0.0
-4.9042255939 9.99908264216 0.0
-4.88028611096 9.99856665303 0.0
-4.85634937362 9.99793602375 0.0
-4.83241593085 9.9971907688 0.0
-4.80848633155 9.99633090525 0.0
-4.78456112454 9.99535645284 0.0
-4.76064085854 9.99426743391 0.0
-4.73672608215 9.99306387343 0.0
-4.71281734383 9.99174579902 0.0
-4.68891519194 9.99031324089 0.0
-4.66502017466 9.98876623191 0.0
-4.64113284 9.98710480755 0.0
-4.61725373582 9.98532900592 0.0
-4.59338340977 9.98343886775 0.0
-4.56952240932 9.98143443638 0.0
-4.54567128169 9.97931575778 0.0
-4.52183057392 9.97708288056 0.0
-4.49800083277 9.97473585591 0.0
-4.47418260478 9.97227473767 0.0
-4.45037643619 9.96969958228 0.0
-4.42658287301 9.9670104488 0.0
-4.40280246092 9.9642073989 0.0
-4.37903574532 9.96129049688 0.0
-4.35528327129 9.95825980962 0.0
-4.33154558358 9.95511540664 0.0
-4.30782322661 9.95185736006 0.0
-4.28411674443 9.94848574459 0.0
-4.26042668076 9.94500063756 0.0
-4.23675357891 9.9414021189 0.0
-4.21309798181 9.93769027115 0.0
-4.189460432 9.93386517942 0.0
-4.16584147159 9.92992693145 0.0
-4.14224164227 9.92587561757 0.0
-4.11866148531 9.92171133068 0.0
-4.09510154149 9.91743416629 0.0
-4.07156235116 9.9130442225 0.0
-4.04804445418 9.90854159998 0.0
-4.02454838992 9.90392640202 0.0
-4.00107469726 9.89919873444 0.0
-3.97762391455 9.89435870568 0.0
-3.95419657964 9.88940642675 0.0
-3.93079322981 9.88434201122 0.0
-3.90741440182 9.87916557524 0.0
-3.88406063184 9.87387723754 0.0
-3.86073245549 9.86847711939 0.0
-3.83743040779 9.86296534465 0.0
-3.81415502316 9.85734203973 0.0
-3.79090683541 9.85160733359 0.0
-3.76768637774 9.84576135776 0.0
-3.74449418269 9.83980424632 0.0
-3.72133078217 9.83373613589 0.0
-3.69819670743 9.82755716563 0.0
-3.67509248902 9.82126747727 0.0
-3.65201865684 9.81486721504 0.0
-3.62897574008 9.80835652575 0.0
-3.60596426722 9.80173555871 0.0
-3.58298476602 9.79500446576 0.0
-3.56003776349 9.78816340129 0.0
-3.53712378594 9.78121252219 0.0
-3.51424335886 9.77415198787 0.0
-3.49139700703 9.76698196028 0.0
-3.46858525441 9.75970260384 0.0
-3.44580862417 9.75231408551 0.0
-3.4230676387 9.74481657474 0.0
-3.40036281955 9.73721024348 0.0
-3.37769468745 9.72949526618 0.0
-3.35506376227 9.72167181979 0.0
-3.33247056305 9.71374008372 0.0
-3.30991560796 9.7057002399 0.0
-3.28739941429 9.6975524727 0.0
-3.26492249843 9.68929696901 0.0
-3.24248537588 9.68093391814 0.0
-3.22008856124 9.67246351191 0.0
-3.19773256816 9.66388594459 0.0
-3.17541790937 9.65520141289 0.0
-3.15314509664 9.64641011599 0.0
-3.1309146408 9.63751225551 0.0
-3.10872705169 9.62850803553 0.0
-3.08658283818 9.61939766256 0.0
-3.06448250813 9.61018134553 0.0
-3.04242656841 9.60085929582 0.0
-3.02041552485 9.59143172722 0.0
-2.99844988229 9.58189885596 0.0
-2.97653014448 9.57226090067 0.0
-2.95465681415 9.56251808238 0.0
-2.93283039295 9.55267062456 0.0
-2.91105138147 9.54271875303 0.0
-2.8893202792 9.53266269606 0.0
-2.86763758453 9.52250268426 0.0
-2.84600379475 9.51223895065 0.0
-2.82441940602 9.50187173063 0.0
-2.80288491336 9.49140126197 0.0
-2.78140081067 9.48082778481 0.0
-2.75996759067 9.47015154163 0.0
-2.73858574493 9.4593727773 0.0
-2.71725576382 9.44849173903 0.0
-2.69597813655 9.43750867636 0.0
-2.67475335111 9.42642384119 0.0
-2.65358189428 9.41523748774 0.0
-2.63246425161 9.40394987257 0.0
-2.61140090744 9.39256125456 0.0
-2.59039234485 9.38107189489 0.0
-2.56943904565 9.36948205708 0.0
-2.5485414904 9.35779200693 0.0
-2.52770015838 9.34600201255 0.0
-2.50691552757 9.33411234434 0.0
-2.48618807468 9.32212327498 0.0
-2.46551827506 9.31003507943 0.0
-2.44490660277 9.29784803494 0.0
-2.42435353054 9.28556242101 0.0
-2.40385952974 9.2731785194 0.0
-2.38342507039 9.26069661414 0.0
-2.36305062115 9.24811699149 0.0
-2.3427366493 9.23543993996 0.0
-2.32248362072 9.22266575029 0.0
-2.30229199993 9.20979471547 0.0
-2.28216225 9.19682713066 0.0
-2.2620948326 9.1837632933 0.0
-2.24209020797 9.17060350297 0.0
-2.22214883491 9.15734806152 0.0
-2.20227117076 9.14399727293 0.0
-2.18245767141 9.13055144341 0.0
-2.16270879128 9.11701088133 0.0
-2.1430249833 9.10337589723 0.0
-2.12340669891 9.08964680384 0.0
-2.10385438805 9.07582391602 0.0
-2.08436849913 9.06190755079 0.0
-2.06494947907 9.04789802732 0.0
-2.04559777323 9.03379566692 0.0
-2.02631382544 9.01960079302 0.0
-2.00709807795 9.00531373116 0.0
-1.98795097149 8.99093480902 0.0
-1.96887294517 8.97646435637 0.0
-1.94986443656 8.96190270509 0.0
-1.93092588159 8.94725018914 0.0
-1.91205771462 8.93250714458 0.0
-1.89326036838 8.91767390952 0.0
-1.87453427399 8.90275082416 0.0
-1.85587986091 8.88773823076 0.0
-1.83729755698 8.87263647363 0.0
-1.81878778837 8.85744589911 0.0
-1.80035097961 8.84216685561 0.0
-1.78198755353 8.82679969353 0.0
-1.76369793129 8.81134476531 0.0
-1.74548253235 8.79580242541 0.0
-1.72734177448 8.78017303029 0.0
-1.70927607373 8.7644569384 0.0
-1.69128584443 8.74865451019 0.0
-1.67337149918 8.73276610807 0.0
-1.65553344883 8.71679209643 0.0
-1.6377721025 8.70073284165 0.0
-1.62008786753 8.68458871202 0.0
-1.6024811495 8.66836007781 0.0
-1.58495235222 8.65204731122 0.0
-1.56750187771 8.63565078637 0.0
-1.55013012618 8.61917087932 0.0
-1.53283749605 8.60260796801 0.0
-1.51562438391 8.58596243232 0.0
-1.49849118455 8.569234654 0.0
-1.4814382909 8.5524250167 0.0
-1.46446609407 8.53553390594 0.0
-1.44757498331 8.51856170911 0.0
-1.43076534601 8.50150881547 0.0
-1.41403756769 8.4843756161 0.0
-1.397392032 8.46716250397 0.0
-1.3808291207 8.44986987383 0.0
-1.36434921364 8.4324981223 0.0
-1.34795268879 8.41504764779 0.0
-1.3316399222 8.39751885051 0.0
-1.31541128799 8.37991213249 0.0
-1.29926715836 8.36222789752 0.0
-1.28320790358 8.34446655118 0.0
-1.26723389195 8.32662850083 0.0
-1.25134548982 8.30871415558 0.0
-1.23554306161 8.29072392628 0.0
-1.21982696972 8.27265822553 0.0
-1.2041975746 8.25451746766 0.0
-1.1886552347 8.23630206872 0.0
-1.17320030649 8.21801244648 0.0
-1.1578331444 8.1996490204 0.0
-1.1425541009 8.18121221164 0.0
-1.12736352638 8.16270244304 0.0
-1.11226176925 8.14412013911 0.0
-1.09724917585 8.12546572603 0.0
-1.08232609049 8.10673963163 0.0
-1.06749285543 8.08794228539 0.0
-1.05274981087 8.06907411842 0.0
-1.03809729492 8.05013556346 0.0
-1.02353564364 8.03112705484 0.0
-1.00906519099 8.01204902852 0.0
-0.994686268851 7.99290192206 0.0
-0.980399206994 7.97368617458 0.0
-0.966204333087 7.95440222678 0.0
-0.952101972685 7.93505052094 0.0
-0.938092449219 7.91563150088 0.0
-0.924176083992 7.89614561196 0.0
-0.91035319617 7.8765933011 0.0
-0.896624102777 7.85697501671 0.0
-0.882989118683 7.83729120873 0.0
-0.869448556601 7.8175423286 0.0
-0.856002727079 7.79772882925 0.0
-0.842651938491 7.7778511651 0.0
-0.829396497032 7.75790979204 0.0
-0.816236706712 7.73790516741 0.0
-0.803172869344 7.71783775001 0.0
-0.790205284542 7.69770800008 0.0
-0.777334249712 7.67751637929 0.0
-0.764560060048 7.65726335072 0.0
-0.751883008519 7.63694937886 0.0
-0.739303385869 7.61657492962 0.0
-0.726821480606 7.59614047027 0.0
-0.714437578999 7.57564646947 0.0
-0.702151965067 7.55509339724 0.0
-0.689964920575 7.53448172495 0.0
-0.677876725029 7.51381192533 0.0
-0.665887655667 7.49308447244 0.0
-0.653997987453 7.47229984163 0.0
-0.642207993071 7.45145850961 0.0
-0.630517942922 7.43056095436 0.0
-0.618928105111 7.40960765516 0.0
-0.607438745448 7.38859909257 0.0
-0.596050127435 7.3675357484 0.0
-0.584762512266 7.34641810573 0.0
[...]
POINT_DATA 4484
VECTORS Displacement float
0.0 0.0 0
0.0 0.0 0
-0.693848668861 0.153266068804 0
-0.6 -0.533258742568 0
-0.6 -0.512048279762 0
-0.40576865169 -0.323121585764 0
-0.138520140058 -0.117813629235 0
0.0 0.0 0
0.0 0.0 0
0.0 0.0 0
0.0 0.0 0
0.0 0.0 0
0.0 0.0 0
0.0 0.0 0
0.0 0.0 0
-0.0356116337302 0.0348487238304 0
-0.0637541409321 0.0633744259912 0
-0.0952011530656 0.0865681804161 0
-0.131339589361 0.1061752295 0
-0.170402081932 0.122768712939 0
-0.213468649907 0.135831126381 0
-0.257717539483 0.145064841632 0
-0.303360764124 0.15127444472 0
-0.349069143683 0.155327272305 0
-0.394338378769 0.157436412017 0
-0.43919311245 0.158038288084 0
-0.483142335076 0.15774728532 0
-0.526212945507 0.1569246144 0
-0.568636554016 0.155874385525 0
-0.610485148065 0.154922326888 0
-0.652188235617 0.154027702346 0
-0.693065334767 0.110712163685 0
-0.692150462704 0.0681771305543 0
-0.69113889599 0.0258597014293 0
-0.690017259535 -0.0161973925314 0
-0.688836155768 -0.0578668034424 0
-0.687340011617 -0.0991551090833 0
-0.685659698451 -0.139958072504 0
-0.683488125421 -0.179879867733 0
-0.680607143542 -0.218975462403 0
-0.677244722427 -0.256484849253 0
-0.67315624549 -0.292268189677 0
-0.668095444809 -0.325906534855 0
-0.663168285666 -0.357277752138 0
-0.657698628009 -0.385808519738 0
-0.652179317688 -0.411869043221 0
-0.646291788672 -0.434974094765 0
-0.641163828375 -0.456242746613 0
-0.635556846178 -0.474356799777 0
-0.630421179179 -0.489980783786 0
-0.625066087391 -0.503123794056 0
-0.620031648228 -0.514075794013 0
-0.615045817266 -0.522473906195 0
-0.610076032489 -0.528558779742 0
-0.60500804385 -0.532232040148 0
-0.6 -0.53480676386 0
-0.6 -0.535706960331 0
-0.6 -0.535633018341 0
-0.6 -0.534070202434 0
-0.6 -0.531602341395 0
-0.6 -0.528240436679 0
-0.6 -0.523247488619 0
-0.6 -0.518432189849 0
-0.585306332704 -0.510907541521 0
-0.572154283302 -0.507505148452 0
-0.559404625549 -0.503223430026 0
-0.547730510144 -0.497567819517 0
-0.537073125304 -0.491094031426 0
-0.527091830625 -0.484026426119 0
-0.518007544171 -0.476562264102 0
-0.509505548967 -0.468879718444 0
-0.50155850459 -0.461148698049 0
-0.494295753643 -0.453366379723 0
-0.487531696179 -0.445694321404 0
-0.481329039474 -0.438241995872 0
-0.475594391033 -0.430903861537 0
-0.470227451722 -0.42388457735 0
-0.465315749296 -0.417133693644 0
-0.460752402845 -0.410697296387 0
-0.456510637187 -0.404527173595 0
-0.452561173761 -0.398668116962 0
-0.448943323703 -0.393153811488 0
-0.445562331519 -0.387896401564 0
-0.442424364508 -0.382952697877 0
-0.439526568728 -0.37830900572 0
-0.436822886256 -0.37395876443 0
-0.434310139306 -0.369861499576 0
-0.431975596169 -0.366026137303 0
-0.429814293398 -0.362445673564 0
-0.427802872986 -0.35909622534 0
-0.425924178337 -0.355981268349 0
-0.424178968844 -0.353072092324 0
-0.422552882471 -0.350359461872 0
-0.421039033053 -0.347837456553 0
-0.419632896379 -0.345486627725 0
-0.418322225941 -0.343303704393 0
-0.417103440152 -0.341271367318 0
-0.4159655324 -0.339390540749 0
-0.414905600754 -0.337638827939 0
-0.413917861957 -0.336015107456 0
-0.412996446675 -0.334509128236 0
-0.412138716974 -0.333112936969 0
-0.41133986208 -0.331816939947 0
-0.41059470648 -0.33061810132 0
-0.409898675697 -0.329507609575 0
-0.409249149473 -0.328476576221 0
-0.408644126678 -0.327524618998 0
-0.408079810994 -0.326642076066 0
-0.407552637823 -0.325825819699 0
-0.407060801922 -0.325069450092 0
-0.40660078039 -0.324368316553 0
-0.406170529486 -0.323720724922 0
-0.405375295076 -0.32254281696 0
-0.404973185584 -0.321964438874 0
-0.404565674115 -0.321382036641 0
-0.404150486 -0.320799382832 0
-0.403731214432 -0.320212653201 0
-0.403305072031 -0.319625788858 0
-0.40287473166 -0.319035692165 0
-0.402438098615 -0.318445046612 0
-0.401996381042 -0.317850801952 0
-0.401549438098 -0.317255003318 0
-0.401099564912 -0.316659291807 0
-0.400644255825 -0.316059148432 0
-0.400182923249 -0.315458655569 0
-0.399718306395 -0.314855362433 0
-0.399247979194 -0.314250762565 0
-0.398774579207 -0.313644627776 0
-0.398297135392 -0.313037928625 0
-0.397815050861 -0.31242683299 0
-0.397327517351 -0.311816285754 0
-0.396835435941 -0.311202804475 0
-0.396339036217 -0.310587495827 0
-0.395839975205 -0.309972624586 0
-0.39533711103 -0.309354361044 0
-0.394830505341 -0.308734834109 0
-0.394318708451 -0.30811327733 0
-0.393802042078 -0.307491136943 0
-0.393283041807 -0.306867004289 0
-0.392759155582 -0.306241407783 0
-0.392232922534 -0.30561425845 0
-0.391700736272 -0.304986667868 0
-0.391165135079 -0.3043567684 0
-0.390626840628 -0.303724656095 0
-0.390083205494 -0.303092015938 0
-0.389537272208 -0.302457957983 0
-0.388985830287 -0.30182247233 0
-0.388432928952 -0.301186419563 0
-0.387875747283 -0.300545681078 0
-0.387313780887 -0.299907181995 0
-0.386748197695 -0.299266282479 0
-0.386179233393 -0.298623591325 0
-0.385607524408 -0.297979729717 0
-0.385031066797 -0.29733458348 0
-0.384452205672 -0.296688248208 0
-0.383869314486 -0.296039969695 0
-0.383284284951 -0.295392789933 0
-0.382695401932 -0.294742767603 0
-0.382100589661 -0.294092462097 0
-0.381504335325 -0.293439967344 0
-0.380903766954 -0.292787247601 0
-0.38030105402 -0.292133972961 0
-0.379693375303 -0.291478446458 0
-0.379081833136 -0.29082164006 0
-0.378468902799 -0.290165002516 0
-0.3778507531 -0.289506619324 0
-0.37723056964 -0.288846215971 0
-0.376608415976 -0.288186162655 0
-0.375980600266 -0.287525977876 0
-0.375350710709 -0.286864061214 0
-0.374715850316 -0.28620125366 0
-0.374078859456 -0.285537218976 0
-0.37343763535 -0.284871706389 0
-0.372794740326 -0.284206125926 0
-0.372146093976 -0.283539181796 0
-0.371496247667 -0.282872466242 0
-0.370844205626 -0.282203952058 0
-0.370187775469 -0.281534083289 0
-0.36952694711 -0.280864754257 0
-0.368865053541 -0.280194760095 0
-0.368197664363 -0.279523371015 0
-0.367529998009 -0.27885282197 0
-0.36685865524 -0.278178992343 0
-0.366181878544 -0.277505925285 0
-0.36550352071 -0.276831556802 0
-0.364820495619 -0.2761558255 0
-0.364136266972 -0.275480829357 0
-0.363448841942 -0.274803053217 0
-0.36275691274 -0.274126700609 0
-0.362063618118 -0.273448878477 0
-0.361366167134 -0.272771072849 0
-0.360666598389 -0.272093473444 0
-0.359962452214 -0.271414602694 0
-0.359257106391 -0.270735754974 0
-0.358546908623 -0.270055271726 0
-0.357835745088 -0.269375606555 0
-0.357121527398 -0.268693802479 0
-0.356403074535 -0.26801290395 0
-0.355681918695 -0.267331657143 0
-0.354957845593 -0.266648794815 0
-0.354231646007 -0.265966435371 0
-0.35350082868 -0.265283026805 0
-0.352769192667 -0.264599855304 0
-0.35203322633 -0.263916437008 0
-0.351295679392 -0.263233273068 0
-0.350553019342 -0.262549114864 0
-0.349808283032 -0.261864499976 0
-0.349062793048 -0.261178836884 0
-0.348313428034 -0.260493648919 0
-0.347560075622 -0.259808612106 0
-0.346805825594 -0.259123391002 0
-0.346047122986 -0.258438076684 0
-0.345286556642 -0.257752583301 0
-0.344521813519 -0.257066159512 0
-0.343756050852 -0.256380131675 0
-0.342986261228 -0.255692969276 0
-0.342215662557 -0.255007167452 0
-0.341439593985 -0.254320682053 0
-0.340662710792 -0.253634114104 0
-0.339882087156 -0.252947521016 0
-0.339098658237 -0.252260948353 0
-0.338311802931 -0.251572612695 0
-0.337525169434 -0.250887057402 0
-0.336734758194 -0.25019953994 0
-0.335939684337 -0.249512246385 0
-0.335143739068 -0.248825108402 0
-0.334343801426 -0.248137648442 0
-0.333542066293 -0.247449320655 0
-0.332739345631 -0.246762175548 0
-0.331933280373 -0.246075159063 0
-0.331123425627 -0.245387612885 0
-0.330311923027 -0.244702739192 0
-0.329498412866 -0.244016666151 0
-0.328680990032 -0.243330532583 0
-0.327860562095 -0.242643497516 0
-0.327039512724 -0.241957148704 0
-0.326213918719 -0.241270536865 0
-0.325387208793 -0.240584965575 0
-0.324559170024 -0.239898670542 0
-0.323727997021 -0.239213111683 0
-0.322892942827 -0.238528359208 0
-0.322057331573 -0.237843853607 0
-0.321217420148 -0.237159298013 0
-0.320376260484 -0.236474881348 0
-0.319531372117 -0.235789769213 0
-0.318685961581 -0.235105711757 0
-0.317837195117 -0.234421129074 0
-0.316987074811 -0.233738292508 0
-0.316135202827 -0.233054971962 0
-0.315279911073 -0.232371298925 0
-0.314422482251 -0.231689502671 0
-0.313562427064 -0.231008270369 0
-0.312699266347 -0.230325875247 0
-0.311835173965 -0.229645182542 0
-0.310968406507 -0.228963869818 0
-0.310100597659 -0.228282977251 0
-0.30922971887 -0.227602106347 0
-0.30835507241 -0.226922207287 0
-0.307480145742 -0.226242516335 0
-0.306602096375 -0.225563222568 0
-0.305723156186 -0.224885510068 0
-0.304840494718 -0.224207042232 0
-0.303958056209 -0.223530156364 0
-0.303072040587 -0.222852723919 0
-0.302185411933 -0.222177014635 0
-0.301294776417 -0.221500945183 0
-0.300403935024 -0.220826095252 0
-0.29950859271 -0.220150190831 0
-0.29861349304 -0.219475586812 0
-0.29771526668 -0.21880123264 0
-0.296816443605 -0.21812886507 0
-0.295914008667 -0.21745618052 0
-0.295010976952 -0.21678491415 0
-0.294103946862 -0.216112766728 0
-0.293197261556 -0.215442235261 0
-0.292287423381 -0.214771955095 0
-0.291376684196 -0.21410227556 0
-0.29046381112 -0.213432349657 0
-0.289548882575 -0.212763590179 0
-0.288632722107 -0.212096029057 0
-0.28771356484 -0.211428154109 0
-0.286794340403 -0.210762254528 0
-0.285871605942 -0.210095765808 0
-0.284949174056 -0.209431173779 0
-0.28402281388 -0.208766464113 0
-0.28309582369 -0.208102460651 0
-0.282168086634 -0.207439075184 0
-0.281237096012 -0.206775645555 0
-0.280306031487 -0.206114005422 0
-0.279371797706 -0.205452090293 0
-0.278437967259 -0.204791956351 0
-0.277501222387 -0.20413183419 0
-0.276564358628 -0.203473645943 0
-0.275624524789 -0.202815278684 0
-0.274683621098 -0.202158226879 0
-0.273742036292 -0.201501291174 0
-0.272798652439 -0.200845097743 0
-0.27185283885 -0.200189472668 0
-0.270907237085 -0.199535136061 0
-0.269958394381 -0.198880684921 0
-0.269009210795 -0.198227478429 0
-0.268060121222 -0.197575148699 0
-0.267108255493 -0.19692406061 0
-0.266156198947 -0.196273512971 0
-0.26520065159 -0.19562262873 0
-0.264245417322 -0.19497355785 0
-0.26328945223 -0.194324647955 0
-0.262332937044 -0.193676872545 0
-0.261373692832 -0.19302987922 0
-0.260415489133 -0.192384991766 0
-0.259453791107 -0.191739919568 0
-0.258492248495 -0.191095911974 0
-0.257530272582 -0.190452790795 0
-0.256565639176 -0.1898100458 0
-0.255601739041 -0.189169223559 0
-0.25463606155 -0.188528618498 0
-0.253669634925 -0.1878890233 0
-0.252701754431 -0.187249269575 0
-0.251734242534 -0.186611928465 0
-0.250763982952 -0.185973903701 0
-0.24979438302 -0.185337876707 0
-0.248824520086 -0.184702371053 0
-0.247852463745 -0.184067350079 0
-0.246880585708 -0.183434036868 0
-0.245908429914 -0.182800908198 0
-0.244934487802 -0.18216845997 0
-0.243960120353 -0.181538071371 0
-0.242985863467 -0.18090802388 0
-0.242010959072 -0.180278429316 0
-0.241034189714 -0.179649578378 0
-0.24005874475 -0.179022582005 0
-0.239080923162 -0.178395367162 0
-0.238104308866 -0.177770202482 0
-0.237127132525 -0.177145619456 0
-0.236149569924 -0.176522402751 0
-0.23517142021 -0.175900200237 0
-0.234191378979 -0.175277113187 0
-0.233213192714 -0.174656651892 0
-0.232232555972 -0.174035549516 0
-0.231253938621 -0.173417065687 0
-0.230273042772 -0.172797719734 0
-0.229294501849 -0.172180644069 0
-0.22831389433 -0.171563437885 0
-0.227334615117 -0.170948292999 0
-0.226354238292 -0.170333536723 0
-0.225374024308 -0.169720503868 0
-0.224394320019 -0.169108450872 0
-0.223414079882 -0.168496446971 0
-0.222433915524 -0.167885545036 0
-0.22145498542 -0.16727660487 0
-0.220474185941 -0.166667144584 0
-0.219495489425 -0.166060134498 0
-0.218515001096 -0.165452349616 0
-0.217537242898 -0.164847004611 0
-0.216557791333 -0.164241658545 0
-0.215580595731 -0.163638905734 0
-0.214601285624 -0.163035047506 0
-0.213625145396 -0.16243352751 0
-0.21264692881 -0.161831939085 0
-0.211670373429 -0.161232650877 0
-0.210692739893 -0.160632558881 0
-0.209718845716 -0.160036119373 0
-0.20874282146 -0.159438979914 0
-0.207769497501 -0.158844316964 0
-0.206794751634 -0.158249234734 0
-0.205822549985 -0.157656022133 0
-0.204849577333 -0.157062474821 0
-0.203876877627 -0.156470515277 0
-0.202906721974 -0.155880491149 0
-0.201937339747 -0.155292127344 0
-0.200970495099 -0.154703948523 0
-0.200001594796 -0.1541163716 0
-0.199034256971 -0.153531627131 0
-0.198067775684 -0.152946518213 0
-0.197102906464 -0.152362885044 0
-0.196140060838 -0.151781603749 0
-0.195175914787 -0.15119948615 0
-0.194215367517 -0.150619717626 0
-0.193254337884 -0.150039877184 0
-0.192296964276 -0.149462906548 0
-0.191337707219 -0.148886212644 0
-0.190380342253 -0.148312024802 0
-0.189423378875 -0.147737584772 0
-0.188468292256 -0.147164044302 0
-0.187516779107 -0.146591980691 0
-0.186565603517 -0.146020324571 0
-0.185616007663 -0.145450904933 0
-0.184668393437 -0.144884764447 0
-0.183723419741 -0.144318479588 0
-0.182776552181 -0.143752188523 0
-0.181834744594 -0.14318916256 0
-0.180892236511 -0.142626545617 0
-0.179951080159 -0.142066446244 0
-0.179012431508 -0.141504730223 0
-0.17807749437 -0.140945659868 0
-0.177140662583 -0.140389562778 0
-0.176208945858 -0.139834833767 0
-0.175277524722 -0.139278788035 0
-0.174349346396 -0.138726749723 0
-0.173424584115 -0.13817657387 0
-0.172498851831 -0.137625587804 0
-0.171575864125 -0.137077273506 0
-0.170656191381 -0.136530971091 0
-0.169736850697 -0.13598414076 0
-0.16882159436 -0.135441013426 0
-0.16790704065 -0.134897529929 0
-0.166997080442 -0.134357705679 0
-0.166087573697 -0.133817730124 0
-0.165182646894 -0.133280602779 0
-0.164280432335 -0.132745153327 0
-0.163379446994 -0.13221291014 0
-0.162478991077 -0.131683313529 0
-0.161583328633 -0.13115592226 0
-0.16068781372 -0.130627579407 0
-0.159797902602 -0.130103283616 0
-0.158907770261 -0.129578436394 0
-0.158021946214 -0.12905737793 0
-0.157138056858 -0.12853635408 0
-0.156258604794 -0.12801949312 0
-0.15538080854 -0.127502870358 0
-0.154506915234 -0.126990285667 0
-0.15363574777 -0.126479048446 0
-0.152768416076 -0.125971867921 0
-0.151903055412 -0.125464185584 0
-0.151041707939 -0.124960768193 0
-0.150180931007 -0.124460835822 0
-0.149326813896 -0.12396400163 0
-0.14847508165 -0.123467079979 0
-0.147627683941 -0.122976835534 0
-0.146783522079 -0.122488283268 0
-0.145941609463 -0.122000686304 0
-0.145104116987 -0.121519950957 0
-0.144268164868 -0.121041847315 0
-0.143435430995 -0.120567509467 0
-0.142607129506 -0.120095001503 0
-0.141782854851 -0.119628772958 0
-0.140963179263 -0.119166682707 0
-0.140145271002 -0.118711016467 0
-0.139330766506 -0.118258787298 0
-0.137631078243 -0.117327398376 0
-0.136513411115 -0.116720700948 0
-0.135112827699 -0.115960790924 0
-0.133355110672 -0.115009333162 0
-0.131153376739 -0.113814418004 0
-0.128396541854 -0.112304355128 0
-0.12496768557 -0.1103859501 0
-0.120703642199 -0.107963051818 0
-0.115418437074 -0.104898289755 0
-0.108903687784 -0.100923385543 0
-0.100892894574 -0.0958431014029 0
-0.0911659996184 -0.0892735500058 0
-0.0795450654969 -0.080740727082 0
-0.065901463063 -0.069066420436 0
-0.0499600759301 -0.0536321488564 0
-0.030927096976 -0.0327105753596 0
-0.455943068141 -0.0706208335143 0
-0.249587175094 -0.00926613099861 0
-0.523722021215 -0.243225379906 0
-0.54038660432 -0.379637835488 0
-0.341593029103 -0.102993979159 0
-0.423261757258 -0.200988790206 0
-0.461350036649 -0.287138446926 0
-0.229547424238 -0.0732039733407 0
-0.124476215809 -0.0430572043819 0
-0.479990312986 -0.355882054116 0
-0.285072071689 -0.127777683354 0
-0.352680476154 -0.178646711176 0
-0.387720821146 -0.23145391807 0
-0.415482925307 -0.276417321457 0
-0.442941504612 -0.319734773965 0
-0.225244114108 -0.111497042567 0
-0.166824863793 -0.0835512671803 0
-0.257182618775 -0.144174468242 0
-0.299892656829 -0.168436137365 0
-0.32727166551 -0.198332183632 0
-0.354166364265 -0.226469777682 0
-0.374626159981 -0.250958498557 0
-0.388916378404 -0.273216006126 0
-0.408727463516 -0.296108514167 0
-0.420277354824 -0.317494829023 0
-0.440797363696 -0.343998819763 0
-0.190695994407 -0.110897755393 0
-0.224768799027 -0.136410452925 0
-0.159575437208 -0.102461377604 0
-0.270732573606 -0.167587132233 0
-0.288671049774 -0.184763105509 0
-0.305679976322 -0.199791362032 0
-0.203641138628 -0.132364203276 0
-0.130093626511 -0.0905539822916 0
-0.320643433853 -0.213748034295 0
-0.334500965334 -0.227379410298 0
-0.350763564818 -0.240758095289 0
-0.240176006058 -0.154684514579 0
-0.423839265639 -0.331101378472 0
-0.391486945234 -0.28658943633 0
-0.397238766283 -0.297844865426 0
-0.405585864889 -0.309000603219 0
-0.410903534305 -0.318586017005 0
-0.184657202109 -0.1260262091 0
-0.508347440638 -0.417070482068 0
-0.251188592863 -0.16711053547 0
-0.358935264431 -0.252914083125 0
-0.371441339118 -0.26534004834 0
-0.169225049872 -0.119798281416 0
-0.377843671894 -0.275749976022 0
-0.224608240789 -0.151720920175 0
-0.211042613575 -0.14534836499 0
-0.464247377867 -0.376887711351 0
-0.154836769331 -0.113806751974 0
-0.140697266606 -0.106662302923 0
-0.261914021038 -0.177529510998 0
-0.272780082734 -0.185178467217 0
-0.556676605311 -0.483045794566 0
-0.28233826048 -0.193488362332 0
-0.292073357245 -0.200815000317 0
-0.413398452132 -0.325205629164 0
-0.299567068773 -0.208123717201 0
-0.308294620101 -0.214743108223 0
-0.316541480249 -0.221188968753 0
-0.380507074 -0.282721280562 0
-0.384892670267 -0.28926137848 0
-0.336841847045 -0.236805047409 0
-0.342626997763 -0.24435087766 0
-0.201246937828 -0.143203308493 0
-0.191795199403 -0.138337250227 0
-0.231048328499 -0.161398195907 0
-0.240177145084 -0.166894571085 0
-0.397271121601 -0.303292177678 0
-0.36004535443 -0.260652644584 0
-0.427826078322 -0.341935895289 0
-0.322346233625 -0.227590013512 0
-0.389094242017 -0.294709981385 0
-0.347939998069 -0.250694348442 0
-0.364471273558 -0.267046402266 0
-0.399567886624 -0.308401772629 0
-0.40306468672 -0.313345478998 0
-0.418107585678 -0.332620824029 0
-0.183320364102 -0.135019229664 0
-0.175406087919 -0.130644383651 0
-0.441407581034 -0.359335527151 0
-0.0851324353867 -0.0530056179597 0
-0.352449445595 -0.256285317421 0
-0.368351542055 -0.272256574765 0
-0.327469809025 -0.233243286639 0
-0.40547131947 -0.317594961528 0
-0.217180537423 -0.154482598414 0
-0.253167673222 -0.177121155756 0
-0.224195401848 -0.160150674322 0
-0.16856047808 -0.128364456938 0
-0.160879154911 -0.122849687468 0
-0.2454498561 -0.173467561199 0
-0.373811169773 -0.278676893365 0
-0.148719255787 -0.11588174385 0
-0.435793078534 -0.24841092976 0
-0.210474874276 -0.152963638843 0
-0.115948212408 0.0224498264982 0
-0.263780806141 -0.184898577158 0
-0.390748220025 -0.298769979666 0
-0.40715762675 -0.321032567255 0
-0.518351913581 -0.33030825904 0
-0.572470880392 -0.446517605818 0
-0.518783080024 -0.45518389201 0
-0.476791409439 -0.404060107845 0
-0.409710008064 -0.324561450754 0
-0.274139642356 -0.193269200727 0
-0.126028865519 -0.0986953478424 0
-0.357511665531 -0.0319270924741 0
-0.142642584051 -0.114103780011 0
-0.135581390823 -0.109707262559 0
-0.283994619815 -0.199696681124 0
-0.490637750483 -0.159064774059 0
-0.280484790946 -0.149065480237 0
-0.335559433736 -0.242007738098 0
-0.323837823043 -0.147439605259 0
-0.15584121941 -0.121963197246 0
-0.257104337839 -0.182095346275 0
-0.38958648857 -0.149778256381 0
-0.43372262669 -0.297353403846 0
-0.267527175908 -0.190031518673 0
-0.399373566442 -0.260582977518 0
-0.292370952792 -0.206808643424 0
-0.233507651954 -0.16759446728 0
-0.278281629388 -0.197600861319 0
-0.379160217826 -0.285789834901 0
-0.329824251115 -0.237885261118 0
-0.375293131603 -0.282256040948 0
-0.392649363173 -0.302036893507 0
-0.395054892166 -0.305255470992 0
-0.205484795788 -0.151041558472 0
-0.286349856794 -0.0873757216967 0
-0.479886309222 -0.325002645629 0
-0.339302810507 -0.2142979257 0
-0.575491415466 -0.517841994331 0
-0.404058252337 -0.28330910319 0
-0.300284341902 -0.213611065206 0
-0.18033171274 -0.0239519808966 0
-0.30928989258 -0.220482755456 0
-0.362303882593 -0.204279751142 0
-0.195853170057 -0.144921963993 0
-0.570007349079 -0.0937390694346 0
-0.527276139679 0.0264773503394 0