# vtk DataFile Version 2.0
Generated with Solid Solver
ASCII
DATASET UNSTRUCTURED_GRID
POINTS 4484 float 
0.0 0.0 0.0
10.0 0.0 0.0
10.0 20.0 0.0
-20.0 20.0 0.0
-20.0 10.0 0.0
-5.0 10.0 0.0
0.0 5.0 0.0
1.11111111111 0.0 0.0
2.22222222222 0.0 0.0
3.33333333333 0.0 0.0
4.44444444444 0.0 0.0
5.55555555555 0.0 0.0
6.66666666666 0.0 0.0
7.77777777777 0.0 0.0
8.88888888889 0.0 0.0
10.0 1.17647058823 0.0
10.0 2.35294117647 0.0
10.0 3.5294117647 0.0
10.0 4.70588235293 0.0
10.0 5.88235294116 0.0
10.0 7.0588235294 0.0
10.0 8.23529411763 0.0
10.0 9.41176470587 0.0
10.0 10.5882352941 0.0
10.0 11.7647058823 0.0
10.0 12.9411764706 0.0
10.0 14.1176470588 0.0
10.0 15.2941176471 0.0
10.0 16.4705882353 0.0
10.0 17.6470588235 0.0
10.0 18.8235294118 0.0
8.8 20.0 0.0
7.6 20.0 0.0
6.39999999999 20.0 0.0
5.19999999999 20.0 0.0
4.0 20.0 0.0
2.8 20.0 0.0
1.6 20.0 0.0
0.400000000005 20.0 0.0
-0.79999999999 20.0 0.0
-1.99999999999 20.0 0.0
-3.19999999998 20.0 0.0
-4.39999999998 20.0 0.0
-5.59999999997 20.0 0.0
-6.79999999998 20.0 0.0
-7.99999999998 20.0 0.0
-9.19999999998 20.0 0.0
-10.4 20.0 0.0
-11.6 20.0 0.0
-12.8 20.0 0.0
-14.0 20.0 0.0
-15.2 20.0 0.0
-16.4 20.0 0.0
-17.6 20.0 0.0
-18.8 20.0 0.0
-20.0 18.8888888889 0.0
-20.0 17.7777777778 0.0
-20.0 16.6666666667 0.0
-20.0 15.5555555556 0.0
-20.0 14.4444444444 0.0
-20.0 13.3333333333 0.0
-20.0 12.2222222222 0.0
-20.0 11.1111111111 0.0
-18.848092502 10.0 0.0
-17.7828751182 10.0 0.0
-16.7978238296 10.0 0.0
-15.8869054316 10.0 0.0
-15.0445409688 10.0 0.0
-14.2655711094 10.0 0.0
-13.5452250657 10.0 0.0
-12.8790905124 10.0 0.0
-12.2630880938 10.0 0.0
-11.6934447292 10.0 0.0
-11.1666715362 10.0 0.0
-10.6795422524 10.0 0.0
-10.2290733255 10.0 0.0
-9.8125057789 10.0 0.0
-9.42728821879 10.0 0.0
-9.07106142797 10.0 0.0
-8.74164341353 10.0 0.0
-8.43701679755 10.0 0.0
-8.15531577579 10.0 0.0
-7.89481496543 10.0 0.0
-7.6539189469 10.0 0.0
-7.43115227515 10.0 0.0
-7.22515055976 10.0 0.0
-7.034652113 10.0 0.0
-6.85849015483 10.0 0.0
-6.69558581455 10.0 0.0
-6.54494132403 10.0 0.0
-6.40563404556 10.0 0.0
-6.27681073601 10.0 0.0
-6.15768239686 10.0 0.0
-6.04751944207 10.0 0.0
-5.94564710752 10.0 0.0
-5.85144146801 10.0 0.0
-5.76432558625 10.0 0.0
-5.68376583343 10.0 0.0
-5.60926885222 10.0 0.0
-5.54037836642 10.0 0.0
-5.47667244508 10.0 0.0
-5.41776089423 10.0 0.0
-5.36328290849 10.0 0.0
-5.31290482252 10.0 0.0
-5.2663180986 10.0 0.0
-5.22323738128 10.0 0.0
-5.18339883885 10.0 0.0
-5.14655846354 10.0 0.0
-5.11249061724 10.0 0.0
-5.08098665333 10.0 0.0
-5.05185360877 10.0 0.0
-5.02491306227 10.0 0.0
-4.97605502557 9.99994266349 0.0
-4.95211060031 9.99977065528 0.0
-4.92816727338 9.99948397931 0.0
-4.9042255939 9.99908264216 0.0
-4.88028611096 9.99856665303 0.0
-4.85634937362 9.99793602375 0.0
-4.83241593085 9.9971907688 0.0
-4.80848633155 9.99633090525 0.0
-4.78456112454 9.99535645284 0.0
-4.76064085854 9.99426743391 0.0
-4.73672608215 9.99306387343 0.0
-4.71281734383 9.99174579902 0.0
-4.68891519194 9.99031324089 0.0
-4.66502017466 9.98876623191 0.0
-4.64113284 9.98710480755 0.0
-4.61725373582 9.98532900592 0.0
-4.59338340977 9.98343886775 0.0
-4.56952240932 9.98143443638 0.0
-4.54567128169 9.97931575778 0.0
-4.52183057392 9.97708288056 0.0
-4.49800083277 9.97473585591 0.0
-4.47418260478 9.97227473767 0.0
-4.45037643619 9.96969958228 0.0
-4.42658287301 9.9670104488 0.0
-4.40280246092 9.9642073989 0.0
-4.37903574532 9.96129049688 0.0
-4.35528327129 9.95825980962 0.0
-4.33154558358 9.95511540664 0.0
-4.30782322661 9.95185736006 0.0
-4.28411674443 9.94848574459 0.0
-4.26042668076 9.94500063756 0.0
-4.23675357891 9.9414021189 0.0
-4.21309798181 9.93769027115 0.0
-4.189460432 9.93386517942 0.0
-4.16584147159 9.92992693145 0.0
-4.14224164227 9.92587561757 0.0
-4.11866148531 9.92171133068 0.0
-4.09510154149 9.91743416629 0.0
-4.07156235116 9.9130442225 0.0
-4.04804445418 9.90854159998 0.0
-4.02454838992 9.90392640202 0.0
-4.00107469726 9.89919873444 0.0
-3.97762391455 9.89435870568 0.0
-3.95419657964 9.88940642675 0.0
-3.93079322981 9.88434201122 0.0
-3.90741440182 9.87916557524 0.0
-3.88406063184 9.87387723754 0.0
-3.86073245549 9.86847711939 0.0
-3.83743040779 9.86296534465 0.0
-3.81415502316 9.85734203973 0.0
-3.79090683541 9.85160733359 0.0
-3.76768637774 9.84576135776 0.0
-3.74449418269 9.83980424632 0.0
-3.72133078217 9.83373613589 0.0
-3.69819670743 9.82755716563 0.0
-3.67509248902 9.82126747727 0.0
-3.65201865684 9.81486721504 0.0
-3.62897574008 9.80835652575 0.0
-3.60596426722 9.80173555871 0.0
-3.58298476602 9.79500446576 0.0
-3.56003776349 9.78816340129 0.0
-3.53712378594 9.78121252219 0.0
-3.51424335886 9.77415198787 0.0
-3.49139700703 9.76698196028 0.0
-3.46858525441 9.75970260384 0.0
-3.44580862417 9.75231408551 0.0
-3.4230676387 9.74481657474 0.0
-3.40036281955 9.73721024348 0.0
-3.37769468745 9.72949526618 0.0
-3.35506376227 9.72167181979 0.0
-3.33247056305 9.71374008372 0.0
-3.30991560796 9.7057002399 0.0
-3.28739941429 9.6975524727 0.0
-3.26492249843 9.68929696901 0.0
-3.24248537588 9.68093391814 0.0
-3.22008856124 9.67246351191 0.0
-3.19773256816 9.66388594459 0.0
-3.17541790937 9.65520141289 0.0
-3.15314509664 9.64641011599 0.0
-3.1309146408 9.63751225551 0.0
-3.10872705169 9.62850803553 0.0
-3.08658283818 9.61939766256 0.0
-3.06448250813 9.61018134553 0.0
-3.04242656841 9.60085929582 0.0
-3.02041552485 9.59143172722 0.0
-2.99844988229 9.58189885596 0.0
-2.97653014448 9.57226090067 0.0
-2.95465681415 9.56251808238 0.0
-2.93283039295 9.55267062456 0.0
-2.91105138147 9.54271875303 0.0
-2.8893202792 9.53266269606 0.0
-2.86763758453 9.52250268426 0.0
-2.84600379475 9.51223895065 0.0
-2.82441940602 9.50187173063 0.0
-2.80288491336 9.49140126197 0.0
-2.78140081067 9.48082778481 0.0
-2.75996759067 9.47015154163 0.0
-2.73858574493 9.4593727773 0.0
-2.71725576382 9.44849173903 0.0
-2.69597813655 9.43750867636 0.0
-2.67475335111 9.42642384119 0.0
-2.65358189428 9.41523748774 0.0
-2.63246425161 9.40394987257 0.0
-2.61140090744 9.39256125456 0.0
-2.59039234485 9.38107189489 0.0
-2.56943904565 9.36948205708 0.0
-2.5485414904 9.35779200693 0.0
-2.52770015838 9.34600201255 0.0
-2.50691552757 9.33411234434 0.0
-2.48618807468 9.32212327498 0.0
-2.46551827506 9.31003507943 0.0
-2.44490660277 9.29784803494 0.0
-2.42435353054 9.28556242101 0.0
-2.40385952974 9.2731785194 0.0
-2.38342507039 9.26069661414 0.0
-2.36305062115 9.24811699149 0.0
-2.3427366493 9.23543993996 0.0
-2.32248362072 9.22266575029 0.0
-2.30229199993 9.20979471547 0.0
-2.28216225 9.19682713066 0.0
-2.2620948326 9.1837632933 0.0
-2.24209020797 9.17060350297 0.0
-2.22214883491 9.15734806152 0.0
-2.20227117076 9.14399727293 0.0
-2.18245767141 9.13055144341 0.0
-2.16270879128 9.11701088133 0.0
-2.1430249833 9.10337589723 0.0
-2.12340669891 9.08964680384 0.0
-2.10385438805 9.07582391602 0.0
-2.08436849913 9.06190755079 0.0
-2.06494947907 9.04789802732 0.0
-2.04559777323 9.03379566692 0.0
-2.02631382544 9.01960079302 0.0
-2.00709807795 9.00531373116 0.0
-1.98795097149 8.99093480902 0.0
-1.96887294517 8.97646435637 0.0
-1.94986443656 8.96190270509 0.0
-1.93092588159 8.94725018914 0.0
-1.91205771462 8.93250714458 0.0
-1.89326036838 8.91767390952 0.0
-1.87453427399 8.90275082416 0.0
-1.85587986091 8.88773823076 0.0
-1.83729755698 8.87263647363 0.0
-1.81878778837 8.85744589911 0.0
-1.80035097961 8.84216685561 0.0
-1.78198755353 8.82679969353 0.0
-1.76369793129 8.81134476531 0.0
-1.74548253235 8.79580242541 0.0
-1.72734177448 8.78017303029 0.0
-1.70927607373 8.7644569384 0.0
-1.69128584443 8.74865451019 0.0
-1.67337149918 8.73276610807 0.0
-1.65553344883 8.71679209643 0.0
-1.6377721025 8.70073284165 0.0
-1.62008786753 8.68458871202 0.0
-1.6024811495 8.66836007781 0.0
-1.58495235222 8.65204731122 0.0
-1.56750187771 8.63565078637 0.0
-1.55013012618 8.61917087932 0.0
-1.53283749605 8.60260796801 0.0
-1.51562438391 8.58596243232 0.0
-1.49849118455 8.569234654 0.0
-1.4814382909 8.5524250167 0.0
-1.46446609407 8.53553390594 0.0
-1.44757498331 8.51856170911 0.0
-1.43076534601 8.50150881547 0.0
-1.41403756769 8.4843756161 0.0
-1.397392032 8.46716250397 0.0
-1.3808291207 8.44986987383 0.0
-1.36434921364 8.4324981223 0.0
-1.34795268879 8.41504764779 0.0
-1.3316399222 8.39751885051 0.0
-1.31541128799 8.37991213249 0.0
-1.29926715836 8.36222789752 0.0
-1.28320790358 8.34446655118 0.0
-1.26723389195 8.32662850083 0.0
-1.25134548982 8.30871415558 0.0
-1.23554306161 8.29072392628 0.0
-1.21982696972 8.27265822553 0.0
-1.2041975746 8.25451746766 0.0
-1.1886552347 8.23630206872 0.0
-1.17320030649 8.21801244648 0.0
-1.1578331444 8.1996490204 0.0
-1.1425541009 8.18121221164 0.0
-1.12736352638 8.16270244304 0.0
-1.11226176925 8.14412013911 0.0
-1.09724917585 8.12546572603 0.0
-1.08232609049 8.10673963163 0.0
-1.06749285543 8.08794228539 0.0
-1.05274981087 8.06907411842 0.0
-1.03809729492 8.05013556346 0.0
-1.02353564364 8.03112705484 0.0
-1.00906519099 8.01204902852 0.0
-0.994686268851 7.99290192206 0.0
-0.980399206994 7.97368617458 0.0
-0.966204333087 7.95440222678 0.0
-0.952101972685 7.93505052094 0.0
-0.938092449219 7.91563150088 0.0
-0.924176083992 7.89614561196 0.0
-0.91035319617 7.8765933011 0.0
-0.896624102777 7.85697501671 0.0
-0.882989118683 7.83729120873 0.0
-0.869448556601 7.8175423286 0.0
-0.856002727079 7.79772882925 0.0
-0.842651938491 7.7778511651 0.0
-0.829396497032 7.75790979204 0.0
-0.816236706712 7.73790516741 0.0
-0.803172869344 7.71783775001 0.0
-0.790205284542 7.69770800008 0.0
-0.777334249712 7.67751637929 0.0
-0.764560060048 7.65726335072 0.0
-0.751883008519 7.63694937886 0.0
-0.739303385869 7.61657492962 0.0
-0.726821480606 7.59614047027 0.0
-0.714437578999 7.57564646947 0.0
-0.702151965067 7.55509339724 0.0
-0.689964920575 7.53448172495 0.0
-0.677876725029 7.51381192533 0.0
-0.665887655667 7.49308447244 0.0
-0.653997987453 7.47229984163 0.0
-0.642207993071 7.45145850961 0.0
-0.630517942922 7.43056095436 0.0
-0.618928105111 7.40960765516 0.0
-0.607438745448 7.38859909257 0.0
-0.596050127435 7.3675357484 0.0
-0.584762512266 7.34641810573 0.0
[...]
POINT_DATA 4484
VECTORS Displacement float
0.0 0.0 0
0.0 0.0 0
-0.461363890721 0.104604347896 0
-0.4 -0.356158916212 0
-0.4 -0.342239698061 0
-0.27017950692 -0.215155506883 0
-0.0921775490473 -0.0782124403265 0
0.0 0.0 0
0.0 0.0 0
0.0 0.0 0
0.0 0.0 0
0.0 0.0 0
0.0 0.0 0
0.0 0.0 0
0.0 0.0 0
-0.0234471740236 0.0231566441649 0
-0.0419854197567 0.0421451307322 0
-0.0627478794433 0.0576332243129 0
-0.0866491750554 0.0707843360856 0
-0.112518680906 0.0819684004107 0
-0.141082822966 0.0908423258626 0
-0.170468812525 0.0971860086033 0
-0.200816921423 0.101536718266 0
-0.231240025054 0.10446068591 0
-0.261401347803 0.106085893381 0
-0.291312374185 0.106703040807 0
-0.320643208362 0.106714418914 0
-0.349400790193 0.106359911815 0
-0.377735091551 0.10584227992 0
-0.405688978608 0.105379060229 0
-0.433542514224 0.10494919813 0
-0.461008367602 0.0761878155119 0
-0.46056828437 0.0477860104354 0
-0.460066409096 0.019529857484 0
-0.459496609475 -0.00855639821457 0
-0.458890327108 -0.0363927297404 0
-0.458079084474 -0.0639877068805 0
-0.457143072464 -0.0912751125225 0
-0.455873201344 -0.117999782867 0
-0.454125602089 -0.144196582923 0
-0.45203668709 -0.169359325585 0
-0.449443309975 -0.19339510775 0
-0.446178218451 -0.216023933496 0
-0.442970616347 -0.237146672694 0
-0.439370583388 -0.256387746008 0
-0.43570613253 -0.273978838783 0
-0.431764454609 -0.289597165971 0
-0.428310987588 -0.303976435684 0
-0.424511789995 -0.316237937655 0
-0.421007924127 -0.326819123411 0
-0.417339335189 -0.335727188827 0
-0.413874327328 -0.343148764417 0
-0.41042990316 -0.348843343092 0
-0.406987910807 -0.352970943807 0
-0.403474860826 -0.355462185399 0
-0.4 -0.357246886598 0
-0.4 -0.357899090598 0
-0.4 -0.357895192278 0
-0.4 -0.356887564387 0
-0.4 -0.355269828356 0
-0.4 -0.353048328041 0
-0.4 -0.349721966408 0
-0.4 -0.346515035589 0
-0.390162903919 -0.341470080025 0
-0.38136202861 -0.339171916042 0
-0.372826358576 -0.336286397017 0
-0.365012593806 -0.332472726697 0
-0.357881871868 -0.328108670933 0
-0.351202816099 -0.323344756106 0
-0.345126762475 -0.318314943508 0
-0.339439669529 -0.313138536982 0
-0.334123780302 -0.307931875253 0
-0.329267143627 -0.302691697983 0
-0.324744564013 -0.297526058577 0
-0.320598747486 -0.292510490377 0
-0.316766044896 -0.287572114458 0
-0.313179383123 -0.28284941982 0
-0.309897914268 -0.278308351314 0
-0.306849616635 -0.273979536415 0
-0.304016195188 -0.269830924173 0
-0.301378558115 -0.265891634026 0
-0.298963099591 -0.262184861306 0
-0.296705696463 -0.258651350012 0
-0.294610973024 -0.255328987974 0
-0.292677088622 -0.252208594421 0
-0.290873028748 -0.249285774606 0
-0.289196331065 -0.246533393931 0
-0.287638842282 -0.243957001152 0
-0.286197332023 -0.241552153012 0
-0.284855954099 -0.239302581265 0
-0.2836032279 -0.237210666016 0
-0.282439719843 -0.235257178326 0
-0.281355777552 -0.233435788438 0
-0.280346782588 -0.231742456388 0
-0.279409709202 -0.230164217912 0
-0.27853639086 -0.228698786404 0
-0.277724388858 -0.227334547304 0
-0.27696640447 -0.226072028199 0
-0.276260447113 -0.224896307607 0
-0.27560265408 -0.223806513963 0
-0.274989109302 -0.222795810718 0
-0.274418052374 -0.22185883091 0
-0.273886242217 -0.220989140569 0
-0.2733902567 -0.220184669606 0
-0.272927030535 -0.219439534475 0
-0.272494792211 -0.218747768586 0
-0.272092219594 -0.218109069959 0
-0.271716767565 -0.217516979047 0
-0.271366062987 -0.216969389677 0
-0.271038891087 -0.21646200972 0
-0.270732907632 -0.215991710335 0
-0.270446758843 -0.215557347159 0
-0.269917925588 -0.214767368238 0
-0.269650520126 -0.21437953455 0
-0.269379500156 -0.213989030202 0
-0.26910336848 -0.21359838659 0
-0.268824498579 -0.213205037388 0
-0.26854105146 -0.212811620148 0
-0.268254795461 -0.212416058838 0
-0.267964342706 -0.212020154078 0
-0.267670485065 -0.211621863573 0
-0.267373141994 -0.211222540788 0
-0.267073852919 -0.210823296933 0
-0.266770918698 -0.210421110882 0
-0.266463966885 -0.210018706947 0
-0.266154816051 -0.20961444414 0
-0.265841854815 -0.209209321941 0
-0.265526841295 -0.208803189691 0
-0.265209133222 -0.208396693607 0
-0.264888308899 -0.207987278392 0
-0.264563853475 -0.207578249026 0
-0.26423635046 -0.207167274854 0
-0.263905963835 -0.206755082448 0
-0.263573807529 -0.206343196822 0
-0.263239102826 -0.205929053375 0
-0.262901902951 -0.205514083676 0
-0.262561232138 -0.205097781291 0
-0.262217308717 -0.204681102065 0
-0.261871819034 -0.204263106706 0
-0.261523062211 -0.20384413757 0
-0.261172736656 -0.203424142339 0
-0.260818436452 -0.203003879008 0
-0.2604618475 -0.20258208158 0
-0.260103458191 -0.202158815558 0
-0.259741504341 -0.201735210106 0
-0.25937801422 -0.201310673607 0
-0.259010843599 -0.200885195725 0
-0.258642700575 -0.200459356498 0
-0.258271670694 -0.200030393322 0
-0.25789746649 -0.199602945579 0
-0.257520837321 -0.199173914976 0
-0.257141942391 -0.198743687909 0
-0.256761212975 -0.198312701097 0
-0.256377305436 -0.197880859754 0
-0.255991792929 -0.197448239288 0
-0.255603582736 -0.197014328989 0
-0.255213954467 -0.196581166885 0
-0.254821741102 -0.196146122486 0
-0.254425570003 -0.195710911115 0
-0.254028422528 -0.195274245997 0
-0.253628400225 -0.194837440006 0
-0.253226943474 -0.194400284283 0
-0.252822159311 -0.193961640659 0
-0.252414787621 -0.193522146455 0
-0.252006495562 -0.193082774939 0
-0.251594714985 -0.192642257351 0
-0.251181560905 -0.192200394907 0
-0.250767102414 -0.191758784942 0
-0.250348864376 -0.191317094812 0
-0.249929230782 -0.190874276995 0
-0.249506274595 -0.190430871856 0
-0.249081891588 -0.189986668139 0
-0.248654671716 -0.189541479862 0
-0.248226341132 -0.189096264055 0
-0.247794166103 -0.188650156462 0
-0.247361186358 -0.188204200703 0
-0.246926732687 -0.187757056779 0
-0.246489349332 -0.187309034941 0
-0.246049032403 -0.186861381019 0
-0.245608001361 -0.186413299435 0
-0.245163299291 -0.185964306011 0
-0.244718407646 -0.185515873548 0
-0.244271045136 -0.185065274842 0
-0.243820066212 -0.18461519797 0
-0.243368021746 -0.184164272982 0
-0.242912852429 -0.183712449271 0
-0.242456879869 -0.183261128421 0
-0.241998755526 -0.182807960905 0
-0.241537645414 -0.182355756629 0
-0.241075608272 -0.181902591086 0
-0.240610798631 -0.181449443465 0
-0.240144579056 -0.180996461561 0
-0.239675292283 -0.180542635873 0
-0.23920520888 -0.180088844458 0
-0.238731875288 -0.179633974767 0
-0.238257898549 -0.179179665408 0
-0.237781865452 -0.178723942293 0
-0.237303017841 -0.178268832536 0
-0.236822368198 -0.177813524734 0
-0.236339747951 -0.177357136395 0
-0.235855716837 -0.176901105072 0
-0.235368594162 -0.176444378616 0
-0.234880929109 -0.175987825649 0
-0.234390376873 -0.175531121021 0
-0.233898768065 -0.175074614833 0
-0.233403741959 -0.174617462573 0
-0.232907320977 -0.1741600204 0
-0.232410379528 -0.173701880961 0
-0.231910870295 -0.173244077086 0
-0.231408696598 -0.172786384598 0
-0.230905918515 -0.172328588164 0
-0.230400172205 -0.171870742166 0
-0.229893180591 -0.171412808128 0
-0.229383387644 -0.170954257532 0
-0.228872919236 -0.170495987701 0
-0.228359752713 -0.170036971594 0
-0.227846054912 -0.169578885374 0
-0.227328704889 -0.169120356555 0
-0.226810807751 -0.168661792014 0
-0.226290409962 -0.168203221436 0
-0.225768148392 -0.167744692118 0
-0.225243583528 -0.167284994328 0
-0.22471917352 -0.166827146677 0
-0.224192238507 -0.166368040075 0
-0.223662190955 -0.165909087583 0
-0.22313155333 -0.165450249497 0
-0.222598258805 -0.164991213849 0
-0.222063748646 -0.164531614919 0
-0.221528589848 -0.164072814681 0
-0.22099119494 -0.163614096987 0
-0.220451279966 -0.163155076183 0
-0.219910278125 -0.162697834481 0
-0.219367916095 -0.162239810191 0
-0.218822962403 -0.16178177277 0
-0.218275984834 -0.161323152306 0
-0.217728588175 -0.160864997314 0
-0.217178168693 -0.16040667835 0
-0.216627002518 -0.159949072164 0
-0.216074932855 -0.159490996705 0
-0.215520795183 -0.159033428838 0
-0.214964072686 -0.158576408794 0
-0.214406978009 -0.158119583154 0
-0.21384701173 -0.15766273909 0
-0.213286211099 -0.157206013118 0
-0.212722912388 -0.156748826696 0
-0.212159274981 -0.156292361977 0
-0.211593392268 -0.155835565024 0
-0.211026611569 -0.15537993789 0
-0.210458658489 -0.154924007863 0
-0.209888430848 -0.154467871151 0
-0.209316784889 -0.154012983131 0
-0.208743401515 -0.153558502246 0
-0.208167932094 -0.153103260727 0
-0.20759183726 -0.152649156295 0
-0.207013956162 -0.152194670439 0
-0.206435377322 -0.151740478009 0
-0.205854767123 -0.15128632234 0
-0.205271646144 -0.150832829273 0
-0.204688321563 -0.150379489484 0
-0.204102920318 -0.149926410609 0
-0.203516943515 -0.149474422606 0
-0.202928472923 -0.149021933966 0
-0.202340164675 -0.148570514641 0
-0.201749458913 -0.148118743731 0
-0.201158365298 -0.147668142539 0
-0.200564600696 -0.147217314026 0
-0.199970708544 -0.146767323551 0
-0.199373800841 -0.146316654961 0
-0.198777050656 -0.145866864123 0
-0.198178219521 -0.145417234162 0
-0.197579017075 -0.144968961151 0
-0.196977401009 -0.14452048559 0
-0.196375399123 -0.144072980022 0
-0.195770719062 -0.143624906906 0
-0.195166267574 -0.143177907131 0
-0.194559733791 -0.142731091868 0
-0.193952590675 -0.142284705426 0
-0.1933440282 -0.141838175095 0
-0.192734089932 -0.141392413424 0
-0.192123352183 -0.140947474749 0
-0.191510618802 -0.140502341095 0
-0.190897856385 -0.140058545821 0
-0.19028274407 -0.139614371916 0
-0.189667843651 -0.139171467888 0
-0.189050344935 -0.138728512746 0
-0.188432399842 -0.13828604065 0
-0.187813973902 -0.137844008363 0
-0.187193368171 -0.137401936964 0
-0.18657274032 -0.136961079082 0
-0.185950001821 -0.136520050004 0
-0.185327543494 -0.136080221298 0
-0.184703152168 -0.135640415467 0
-0.184078690381 -0.135201921226 0
-0.183452252485 -0.134763314779 0
-0.182825109561 -0.134325604898 0
-0.182197496701 -0.13388799704 0
-0.181568706559 -0.133450881067 0
-0.180938302679 -0.13301415992 0
-0.180308043805 -0.132578312623 0
-0.179675631669 -0.132142401935 0
-0.179042979264 -0.131707321476 0
-0.178410415686 -0.131272863652 0
-0.17777602142 -0.130839208153 0
-0.177141515161 -0.13040596947 0
-0.176504681484 -0.129972506547 0
-0.175868047276 -0.12954025903 0
-0.175230921687 -0.12910814325 0
-0.174593461779 -0.128676778763 0
-0.173954190369 -0.128245931706 0
-0.17331562855 -0.127816507917 0
-0.172674770496 -0.127386988654 0
-0.172033969755 -0.126958189469 0
-0.171392917315 -0.126530000528 0
-0.170750103761 -0.126102069858 0
-0.170107778207 -0.125675430508 0
-0.169464286324 -0.125248935694 0
-0.168820320951 -0.124823132008 0
-0.168175383913 -0.124397239412 0
-0.1675306949 -0.123972958073 0
-0.166884192984 -0.123548250277 0
-0.166238124247 -0.123124874311 0
-0.165591906109 -0.122701849401 0
-0.164944244751 -0.122279159566 0
-0.164296689132 -0.121857629758 0
-0.163648978506 -0.121436243712 0
-0.163000089185 -0.12101529768 0
-0.16235091409 -0.120595746467 0
-0.161701818574 -0.120176452468 0
-0.161052307715 -0.119757435688 0
-0.160401576627 -0.119338932319 0
-0.159751726833 -0.118921673737 0
-0.159100315376 -0.118504280135 0
-0.158449710639 -0.118088266055 0
-0.157798751701 -0.117672637055 0
-0.157147556476 -0.117257934511 0
-0.156495976043 -0.11684393983 0
-0.155843134351 -0.116429351463 0
-0.155191547754 -0.116016523441 0
-0.154538327372 -0.115603279611 0
-0.153886477656 -0.115191777579 0
-0.153233111092 -0.114779715926 0
-0.152581323505 -0.114369155388 0
-0.151928181928 -0.113958529317 0
-0.151275921975 -0.1135492746 0
-0.150622981407 -0.113140287945 0
-0.149970133257 -0.11273247188 0
-0.149317661947 -0.112325330783 0
-0.148664801517 -0.111918211971 0
-0.148012030326 -0.111511811354 0
-0.147360101393 -0.111106745888 0
-0.146706934436 -0.110701347531 0
-0.146055175968 -0.110297570307 0
-0.145402240906 -0.109893298274 0
-0.1447511232 -0.109490642178 0
-0.14409889902 -0.109088002488 0
-0.143448192935 -0.108687079462 0
-0.142796095596 -0.108285443129 0
-0.142146108474 -0.107885352118 0
-0.141494776664 -0.107485242198 0
-0.140844544587 -0.107086674492 0
-0.140193598483 -0.106687571171 0
-0.139545169136 -0.10629087597 0
-0.13889533674 -0.105893737177 0
-0.138247313151 -0.105498239182 0
-0.13759835989 -0.105102479861 0
-0.136951117071 -0.104707947698 0
-0.136303381149 -0.104313224697 0
-0.135655803284 -0.103919562399 0
-0.135009960057 -0.103527181336 0
-0.134364634324 -0.103135921248 0
-0.133721012286 -0.102744762569 0
-0.133076052993 -0.102354003821 0
-0.132432151686 -0.101965162733 0
-0.131788807511 -0.101576075401 0
-0.131146570611 -0.101187943602 0
-0.130505705796 -0.100801400909 0
-0.129863978609 -0.100414321189 0
-0.129224637135 -0.100028781813 0
-0.128585005881 -0.0996432063585 0
-0.127947802565 -0.0992595229074 0
-0.127309404354 -0.0988760516166 0
-0.126672264441 -0.0984942600633 0
-0.126035383481 -0.0981123093812 0
-0.125399759447 -0.0977309342855 0
-0.124766529854 -0.0973505319221 0
-0.124133545493 -0.0969704070151 0
-0.123501627515 -0.0965917703332 0
-0.122871044747 -0.0962153318427 0
-0.122242230867 -0.0958387848176 0
-0.12161216186 -0.0954622389727 0
-0.120985464473 -0.0950878333856 0
-0.120358357086 -0.094713734008 0
-0.119732142834 -0.0943413365104 0
-0.11910758391 -0.0939678384972 0
-0.118485523123 -0.0935960694139 0
-0.117862211857 -0.0932263348844 0
-0.117242317604 -0.0928574866157 0
-0.116622619163 -0.0924877537762 0
-0.1160050784 -0.0921206825028 0
-0.115389849761 -0.0917548420192 0
-0.1147739831 -0.0913884737097 0
-0.114159948122 -0.091023872038 0
-0.113548132688 -0.090660612419 0
-0.112936548161 -0.0902970043839 0
-0.11232768272 -0.0899358455114 0
-0.111719307943 -0.08957445823 0
-0.11111398831 -0.0892154787863 0
-0.110509000019 -0.0888564171484 0
-0.109907038351 -0.0884992273813 0
-0.10930691961 -0.0881431412755 0
-0.108707635114 -0.0877891909412 0
-0.108108728776 -0.0874370257358 0
-0.107513016548 -0.0870863138553 0
-0.106917412142 -0.086734973633 0
-0.106325520658 -0.0863862965639 0
-0.105733521921 -0.0860372740163 0
-0.105144388846 -0.0856907679648 0
-0.104556560662 -0.085344291522 0
-0.103971677361 -0.0850005606899 0
-0.103387921381 -0.0846569999453 0
-0.10280674692 -0.084316114235 0
-0.10222741753 -0.0839761229078 0
-0.101650621106 -0.0836388172811 0
-0.10107515839 -0.0833011797489 0
-0.10050237436 -0.0829663595373 0
-0.0999300044164 -0.0826338841726 0
-0.0993620445644 -0.0823034405162 0
-0.0987956877099 -0.0819729271261 0
-0.0982322277677 -0.0816468374767 0
-0.0976709511456 -0.0813218727843 0
-0.0971111669213 -0.0809975486512 0
-0.0965543509806 -0.0806777714613 0
-0.0959985977016 -0.0803597693716 0
-0.0954449655752 -0.0800442663074 0
-0.0948942991758 -0.0797299770959 0
-0.0943463096307 -0.0794198529871 0
-0.0938014262121 -0.079112459629 0
-0.0932577440618 -0.0788093552638 0
-0.0927163533941 -0.0785085463655 0
-0.0915866761053 -0.0778890291959 0
-0.0908439187127 -0.0774855746163 0
-0.0899131669228 -0.0769802823901 0
-0.0887452079981 -0.0763477192895 0
-0.0872822544026 -0.075553455566 0
-0.085450644946 -0.0745500276636 0
-0.0831721729645 -0.0732754951853 0
-0.0803390194079 -0.0716659047567 0
-0.0768275625414 -0.0696301496328 0
-0.0724988305584 -0.0669908747739 0
-0.0671764977209 -0.0636180845158 0
-0.0607139767563 -0.0592563558085 0
-0.0529931227477 -0.0535908180511 0
-0.0439216834352 -0.0458461388186 0
-0.0333148174023 -0.0356014957225 0
-0.0206429639918 -0.0217094417965 0
-0.303299593381 -0.0457711399554 0
-0.165519286148 -0.00571253496126 0
-0.349175589714 -0.160946701907 0
-0.360575081354 -0.252610707739 0
-0.227045765562 -0.0678126370105 0
-0.281876755799 -0.132976184179 0
-0.307551371335 -0.19063189281 0
-0.152324705174 -0.0484026871441 0
-0.0825032776722 -0.0286630934883 0
-0.320055255524 -0.236851202968 0
-0.189434188395 -0.0845563904417 0
-0.234674383072 -0.118273167051 0
-0.258219115764 -0.153513325034 0
-0.276846586422 -0.18360951806 0
-0.295229601809 -0.212655070639 0
-0.149581681827 -0.073924976646 0
-0.110715422933 -0.0555028552974 0
-0.170937150841 -0.0955944503249 0
-0.1994502342 -0.111642028206 0
-0.217795241983 -0.131544589073 0
-0.23580621335 -0.150307620749 0
-0.249505649389 -0.166673231411 0
-0.259065734312 -0.181584569982 0
-0.272311291312 -0.196905625522 0
-0.28001039575 -0.211265541887 0
-0.293725876056 -0.229036009215 0
-0.126655934026 -0.0736291938808 0
-0.149375302311 -0.0905209750403 0
-0.106004668465 -0.0680801016617 0
-0.180047431546 -0.111180838977 0
-0.192047704217 -0.122607100758 0
-0.20342015867 -0.132611319091 0
-0.135345935451 -0.0878786826657 0
-0.0864419015905 -0.0601990800925 0
-0.213425714449 -0.141913924807 0
-0.222690993984 -0.151009904747 0
-0.233558546125 -0.159928745445 0
-0.159692159544 -0.102661364123 0
-0.282349138462 -0.220428558694 0
-0.260767158309 -0.190585233243 0
-0.264592484007 -0.198144288704 0
-0.270158238963 -0.205621651353 0
-0.273690333348 -0.212059071662 0
-0.122737660764 -0.0836956931521 0
-0.338999492588 -0.278031732963 0
-0.167065088051 -0.110926666182 0
-0.239021313217 -0.168070291878 0
-0.247376465058 -0.176373708362 0
-0.112488916616 -0.0795736940775 0
-0.251646286944 -0.183355463341 0
-0.149351584322 -0.100725070265 0
-0.140325181654 -0.0965067431905 0
-0.309408617898 -0.251112033345 0
-0.102936985477 -0.0756022014985 0
-0.0935459016397 -0.0708627546197 0
-0.174236777319 -0.117860202945 0
-0.181488151888 -0.122944136714 0
-0.371327118717 -0.322445344308 0
-0.187873750061 -0.128478024667 0
-0.194372572298 -0.133354360379 0
-0.275332647357 -0.216512696354 0
-0.199380504965 -0.138229838868 0
-0.205206252732 -0.142638546244 0
-0.210711788196 -0.146933612108 0
-0.253412356042 -0.188042641464 0
-0.256331347818 -0.192429195903 0
-0.224265028886 -0.157339796913 0
-0.228129257432 -0.162390789039 0
-0.133825584835 -0.0950936568597 0
-0.127538755458 -0.0918675116353 0
-0.153676707362 -0.107165599304 0
-0.15975979465 -0.110813442864 0
-0.264588340028 -0.201821295557 0
-0.239758047694 -0.173279542626 0
-0.284981346434 -0.227719061559 0
-0.214590103845 -0.151211390037 0
-0.259130201702 -0.196080343665 0
-0.231675810773 -0.166635888252 0
-0.242708730224 -0.17756539459 0
-0.266105512105 -0.205256411997 0
-0.268432096695 -0.208571632605 0
-0.278466955603 -0.221489581688 0
-0.121910201634 -0.0896679492929 0
-0.116646791575 -0.0867654114101 0
-0.294066548674 -0.239386750754 0
-0.0565252960768 -0.0353207765554 0
-0.234684386609 -0.170379226546 0
-0.245294671459 -0.181056861218 0
-0.218012032838 -0.154990663898 0
-0.270027173799 -0.211425312434 0
-0.144447118983 -0.10258088818 0
-0.168430756804 -0.117614419335 0
-0.149128683046 -0.10634753729 0
-0.112105093683 -0.0852509756676 0
-0.1069899939 -0.0815926406968 0
-0.163292643941 -0.115192603401 0
-0.248934274262 -0.185355519482 0
-0.0989065379096 -0.076967748398 0
-0.290383351926 -0.164712526881 0
-0.139997460377 -0.101578869851 0
-0.0766542154026 0.0149757914912 0
-0.175511897769 -0.122787706903 0
-0.260221025468 -0.19881096479 0
-0.271140965267 -0.213735485782 0
-0.345773191675 -0.219458806665 0
-0.382074747244 -0.297639444045 0
-0.345883070571 -0.303773099479 0
-0.317760429499 -0.269404132183 0
-0.272840873369 -0.21610159483 0
-0.182426931322 -0.128361857008 0
-0.0838034903076 -0.0655759347201 0
-0.237478316612 -0.0203624260423 0
-0.0948787572851 -0.0757810067625 0
-0.0901838983506 -0.0728628940516 0
-0.188998968839 -0.132636476239 0
-0.326779634071 -0.104713305238 0
-0.186455680744 -0.09877500162 0
-0.223412218138 -0.160851005361 0
-0.21533279624 -0.0975293721211 0
-0.103654044593 -0.0809992703419 0
-0.17106798061 -0.1209318167 0
-0.259220653314 -0.0988541552579 0
-0.289064183178 -0.197618841267 0
-0.178022642515 -0.126214623801 0
-0.266057578758 -0.173031071576 0
-0.194591201534 -0.137377422852 0
-0.155343370344 -0.111297071517 0
-0.185195713458 -0.131252242186 0
-0.252495738281 -0.190122852702 0
-0.21958534746 -0.158104692039 0
-0.249914561264 -0.187762258473 0
-0.261481402501 -0.201004529077 0
-0.263081838667 -0.203162030407 0
-0.136681949607 -0.10030475209 0
-0.190171474226 -0.057619727074 0
-0.319998597394 -0.216037059902 0
-0.225862614766 -0.142201120316 0
-0.383750429745 -0.345998819946 0
-0.269198097679 -0.188304546755 0
-0.199873703167 -0.141914114758 0
-0.119503852819 -0.0157675415913 0