# vtk DataFile Version 2.0
Generated with Solid Solver
ASCII
DATASET UNSTRUCTURED_GRID
POINTS 4484 float 
0.0 0.0 0.0
10.0 0.0 0.0
10.0 20.0 0.0
-20.0 20.0 0.0
-20.0 10.0 0.0
-5.0 10.0 0.0
0.0 5.0 0.0
1.11111111111 0.0 0.0
2.22222222222 0.0 0.0
3.33333333333 0.0 0.0
4.44444444444 0.0 0.0
5.55555555555 0.0 0.0
6.66666666666 0.0 0.0
7.77777777777 0.0 0.0
8.88888888889 0.0 0.0
10.0 1.17647058823 0.0
10.0 2.35294117647 0.0
10.0 3.5294117647 0.0
10.0 4.70588235293 0.0
10.0 5.88235294116 0.0
10.0 7.0588235294 0.0
10.0 8.23529411763 0.0
10.0 9.41176470587 0.0
10.0 10.5882352941 0.0
10.0 11.7647058823 0.0
10.0 12.9411764706 0.0
10.0 14.1176470588 0.0
10.0 15.2941176471 0.0
10.0 16.4705882353 0.0
10.0 17.6470588235 0.0
10.0 18.8235294118 0.0
8.8 20.0 0.0
7.6 20.0 0.0
6.39999999999 20.0 0.0
5.19999999999 20.0 0.0
4.0 20.0 0.0
2.8 20.0 0.0
1.6 20.0 0.0
0.400000000005 20.0 0.0
-0.79999999999 20.0 0.0
-1.99999999999 20.0 0.0
-3.19999999998 20.0 0.0
-4.39999999998 20.0 0.0
-5.59999999997 20.0 0.0
-6.79999999998 20.0 0.0
-7.99999999998 20.0 0.0
-9.19999999998 20.0 0.0
-10.4 20.0 0.0
-11.6 20.0 0.0
-12.8 20.0 0.0
-14.0 20.0 0.0
-15.2 20.0 0.0
-16.4 20.0 0.0
-17.6 20.0 0.0
-18.8 20.0 0.0
-20.0 18.8888888889 0.0
-20.0 17.7777777778 0.0
-20.0 16.6666666667 0.0
-20.0 15.5555555556 0.0
-20.0 14.4444444444 0.0
-20.0 13.3333333333 0.0
-20.0 12.2222222222 0.0
-20.0 11.1111111111 0.0
-18.848092502 10.0 0.0
-17.7828751182 10.0 0.0
-16.7978238296 10.0 0.0
-15.8869054316 10.0 0.0
-15.0445409688 10.0 0.0
-14.2655711094 10.0 0.0
-13.5452250657 10.0 0.0
-12.8790905124 10.0 0.0
-12.2630880938 10.0 0.0
-11.6934447292 10.0 0.0
-11.1666715362 10.0 0.0
-10.6795422524 10.0 0.0
-10.2290733255 10.0 0.0
-9.8125057789 10.0 0.0
-9.42728821879 10.0 0.0
-9.07106142797 10.0 0.0
-8.74164341353 10.0 0.0
-8.43701679755 10.0 0.0
-8.15531577579 10.0 0.0
-7.89481496543 10.0 0.0
-7.6539189469 10.0 0.0
-7.43115227515 10.0 0.0
-7.22515055976 10.0 0.0
-7.034652113 10.0 0.0
-6.85849015483 10.0 0.0
-6.69558581455 10.0 0.0
-6.54494132403 10.0 0.0
-6.40563404556 10.0 0.0
-6.27681073601 10.0 0.0
-6.15768239686 10.0 0.0
-6.04751944207 10.0 0.0
-5.94564710752 10.0 0.0
-5.85144146801 10.0 0.0
-5.76432558625 10.0 0.0
-5.68376583343 10.0 0.0
-5.60926885222 10.0 0.0
-5.54037836642 10.0 0.0
-5.47667244508 10.0 0.0
-5.41776089423 10.0 0.0
-5.36328290849 10.0 0.0
-5.31290482252 10.0 0.0
-5.2663180986 10.0 0.0
-5.22323738128 10.0 0.0
-5.18339883885 10.0 0.0
-5.14655846354 10.0 0.0
-5.11249061724 10.0 0.0
-5.08098665333 10.0 0.0
-5.05185360877 10.0 0.0
-5.02491306227 10.0 0.0
-4.97605502557 9.99994266349 0.0
-4.95211060031 9.99977065528 0.0
-4.92816727338 9.99948397931 0.0
-4.9042255939 9.99908264216 0.0
-4.88028611096 9.99856665303 0.0
-4.85634937362 9.99793602375 0.0
-4.83241593085 9.9971907688 0.0
-4.80848633155 9.99633090525 0.0
-4.78456112454 9.99535645284 0.0
-4.76064085854 9.99426743391 0.0
-4.73672608215 9.99306387343 0.0
-4.71281734383 9.99174579902 0.0
-4.68891519194 9.99031324089 0.0
-4.66502017466 9.98876623191 0.0
-4.64113284 9.98710480755 0.0
-4.61725373582 9.98532900592 0.0
-4.59338340977 9.98343886775 0.0
-4.56952240932 9.98143443638 0.0
-4.54567128169 9.97931575778 0.0
-4.52183057392 9.97708288056 0.0
-4.49800083277 9.97473585591 0.0
-4.47418260478 9.97227473767 0.0
-4.45037643619 9.96969958228 0.0
-4.42658287301 9.9670104488 0.0
-4.40280246092 9.9642073989 0.0
-4.37903574532 9.96129049688 0.0
-4.35528327129 9.95825980962 0.0
-4.33154558358 9.95511540664 0.0
-4.30782322661 9.95185736006 0.0
-4.28411674443 9.94848574459 0.0
-4.26042668076 9.94500063756 0.0
-4.23675357891 9.9414021189 0.0
-4.21309798181 9.93769027115 0.0
-4.189460432 9.93386517942 0.0
-4.16584147159 9.92992693145 0.0
-4.14224164227 9.92587561757 0.0
-4.11866148531 9.92171133068 0.0
-4.09510154149 9.91743416629 0.0
-4.07156235116 9.9130442225 0.0
-4.04804445418 9.90854159998 0.0
-4.02454838992 9.90392640202 0.0
-4.00107469726 9.89919873444 0.0
-3.97762391455 9.89435870568 0.0
-3.95419657964 9.88940642675 0.0
-3.93079322981 9.88434201122 0.0
-3.90741440182 9.87916557524 0.0
-3.88406063184 9.87387723754 0.0
-3.86073245549 9.86847711939 0.0
-3.83743040779 9.86296534465 0.0
-3.81415502316 9.85734203973 0.0
-3.79090683541 9.85160733359 0.0
-3.76768637774 9.84576135776 0.0
-3.74449418269 9.83980424632 0.0
-3.72133078217 9.83373613589 0.0
-3.69819670743 9.82755716563 0.0
-3.67509248902 9.82126747727 0.0
-3.65201865684 9.81486721504 0.0
-3.62897574008 9.80835652575 0.0
-3.60596426722 9.80173555871 0.0
-3.58298476602 9.79500446576 0.0
-3.56003776349 9.78816340129 0.0
-3.53712378594 9.78121252219 0.0
-3.51424335886 9.77415198787 0.0
-3.49139700703 9.76698196028 0.0
-3.46858525441 9.75970260384 0.0
-3.44580862417 9.75231408551 0.0
-3.4230676387 9.74481657474 0.0
-3.40036281955 9.73721024348 0.0
-3.37769468745 9.72949526618 0.0
-3.35506376227 9.72167181979 0.0
-3.33247056305 9.71374008372 0.0
-3.30991560796 9.7057002399 0.0
-3.28739941429 9.6975524727 0.0
-3.26492249843 9.68929696901 0.0
-3.24248537588 9.68093391814 0.0
-3.22008856124 9.67246351191 0.0
-3.19773256816 9.66388594459 0.0
-3.17541790937 9.65520141289 0.0
-3.15314509664 9.64641011599 0.0
-3.1309146408 9.63751225551 0.0
-3.10872705169 9.62850803553 0.0
-3.08658283818 9.61939766256 0.0
-3.06448250813 9.61018134553 0.0
-3.04242656841 9.60085929582 0.0
-3.02041552485 9.59143172722 0.0
-2.99844988229 9.58189885596 0.0
-2.97653014448 9.57226090067 0.0
-2.95465681415 9.56251808238 0.0
-2.93283039295 9.55267062456 0.0
-2.91105138147 9.54271875303 0.0
-2.8893202792 9.53266269606 0.0
-2.86763758453 9.52250268426 0.0
-2.84600379475 9.51223895065 0.0
-2.82441940602 9.50187173063 0.0
-2.80288491336 9.49140126197 0.0
-2.78140081067 9.48082778481 0.0
-2.75996759067 9.47015154163 0.0
-2.73858574493 9.4593727773 0.0
-2.71725576382 9.44849173903 0.0
-2.69597813655 9.43750867636 0.0
-2.67475335111 9.42642384119 0.0
-2.65358189428 9.41523748774 0.0
-2.63246425161 9.40394987257 0.0
-2.61140090744 9.39256125456 0.0
-2.59039234485 9.38107189489 0.0
-2.56943904565 9.36948205708 0.0
-2.5485414904 9.35779200693 0.0
-2.52770015838 9.34600201255 0.0
-2.50691552757 9.33411234434 0.0
-2.48618807468 9.32212327498 0.0
-2.46551827506 9.31003507943 0.0
-2.44490660277 9.29784803494 0.0
-2.42435353054 9.28556242101 0.0
-2.40385952974 9.2731785194 0.0
-2.38342507039 9.26069661414 0.0
-2.36305062115 9.24811699149 0.0
-2.3427366493 9.23543993996 0.0
-2.32248362072 9.22266575029 0.0
-2.30229199993 9.20979471547 0.0
-2.28216225 9.19682713066 0.0
-2.2620948326 9.1837632933 0.0
-2.24209020797 9.17060350297 0.0
-2.22214883491 9.15734806152 0.0
-2.20227117076 9.14399727293 0.0
-2.18245767141 9.13055144341 0.0
-2.16270879128 9.11701088133 0.0
-2.1430249833 9.10337589723 0.0
-2.12340669891 9.08964680384 0.0
-2.10385438805 9.07582391602 0.0
-2.08436849913 9.06190755079 0.0
-2.06494947907 9.04789802732 0.0
-2.04559777323 9.03379566692 0.0
-2.02631382544 9.01960079302 0.0
-2.00709807795 9.00531373116 0.0
-1.98795097149 8.99093480902 0.0
-1.96887294517 8.97646435637 0.0
-1.94986443656 8.96190270509 0.0
-1.93092588159 8.94725018914 0.0
-1.91205771462 8.93250714458 0.0
-1.89326036838 8.91767390952 0.0
-1.87453427399 8.90275082416 0.0
-1.85587986091 8.88773823076 0.0
-1.83729755698 8.87263647363 0.0
-1.81878778837 8.85744589911 0.0
-1.80035097961 8.84216685561 0.0
-1.78198755353 8.82679969353 0.0
-1.76369793129 8.81134476531 0.0
-1.74548253235 8.79580242541 0.0
-1.72734177448 8.78017303029 0.0
-1.70927607373 8.7644569384 0.0
-1.69128584443 8.74865451019 0.0
-1.67337149918 8.73276610807 0.0
-1.65553344883 8.71679209643 0.0
-1.6377721025 8.70073284165 0.0
-1.62008786753 8.68458871202 0.0
-1.6024811495 8.66836007781 0.0
-1.58495235222 8.65204731122 0.0
-1.56750187771 8.63565078637 0.0
-1.55013012618 8.61917087932 0.0
-1.53283749605 8.60260796801 0.0
-1.51562438391 8.58596243232 0.0
-1.49849118455 8.569234654 0.0
-1.4814382909 8.5524250167 0.0
-1.46446609407 8.53553390594 0.0
-1.44757498331 8.51856170911 0.0
-1.43076534601 8.50150881547 0.0
-1.41403756769 8.4843756161 0.0
-1.397392032 8.46716250397 0.0
-1.3808291207 8.44986987383 0.0
-1.36434921364 8.4324981223 0.0
-1.34795268879 8.41504764779 0.0
-1.3316399222 8.39751885051 0.0
-1.31541128799 8.37991213249 0.0
-1.29926715836 8.36222789752 0.0
-1.28320790358 8.34446655118 0.0
-1.26723389195 8.32662850083 0.0
-1.25134548982 8.30871415558 0.0
-1.23554306161 8.29072392628 0.0
-1.21982696972 8.27265822553 0.0
-1.2041975746 8.25451746766 0.0
-1.1886552347 8.23630206872 0.0
-1.17320030649 8.21801244648 0.0
-1.1578331444 8.1996490204 0.0
-1.1425541009 8.18121221164 0.0
-1.12736352638 8.16270244304 0.0
-1.11226176925 8.14412013911 0.0
-1.09724917585 8.12546572603 0.0
-1.08232609049 8.10673963163 0.0
-1.06749285543 8.08794228539 0.0
-1.05274981087 8.06907411842 0.0
-1.03809729492 8.05013556346 0.0
-1.02353564364 8.03112705484 0.0
-1.00906519099 8.01204902852 0.0
-0.994686268851 7.99290192206 0.0
-0.980399206994 7.97368617458 0.0
-0.966204333087 7.95440222678 0.0
-0.952101972685 7.93505052094 0.0
-0.938092449219 7.91563150088 0.0
-0.924176083992 7.89614561196 0.0
-0.91035319617 7.8765933011 0.0
-0.896624102777 7.85697501671 0.0
-0.882989118683 7.83729120873 0.0
-0.869448556601 7.8175423286 0.0
-0.856002727079 7.79772882925 0.0
-0.842651938491 7.7778511651 0.0
-0.829396497032 7.75790979204 0.0
-0.816236706712 7.73790516741 0.0
-0.803172869344 7.71783775001 0.0
-0.790205284542 7.69770800008 0.0
-0.777334249712 7.67751637929 0.0
-0.764560060048 7.65726335072 0.0
-0.751883008519 7.63694937886 0.0
-0.739303385869 7.61657492962 0.0
-0.726821480606 7.59614047027 0.0
-0.714437578999 7.57564646947 0.0
-0.702151965067 7.55509339724 0.0
-0.689964920575 7.53448172495 0.0
-0.677876725029 7.51381192533 0.0
-0.665887655667 7.49308447244 0.0
-0.653997987453 7.47229984163 0.0
-0.642207993071 7.45145850961 0.0
-0.630517942922 7.43056095436 0.0
-0.618928105111 7.40960765516 0.0
-0.607438745448 7.38859909257 0.0
-0.596050127435 7.3675357484 0.0
-0.584762512266 7.34641810573 0.0
[...]
POINT_DATA 4484
VECTORS Displacement float
0.0 0.0 0
0.0 0.0 0
-1.161925148 0.243165482583 0
-1.0 -0.885009312569 0
-1.0 -0.848571383706 0
-0.677920397185 -0.539584376479 0
-0.231690893146 -0.197971812293 0
0.0 0.0 0
0.0 0.0 0
0.0 0.0 0
0.0 0.0 0
0.0 0.0 0
0.0 0.0 0
0.0 0.0 0
0.0 0.0 0
-0.0608255454723 0.0584316065514 0
-0.10885139822 0.106095217348 0
-0.162272647937 0.14459976484 0
-0.223448531193 0.176854195205 0
-0.289396985731 0.203876435326 0
-0.361883888088 0.224795411962 0
-0.436166564565 0.239225990802 0
-0.512604133143 0.248505689077 0
-0.588987931373 0.254140135153 0
-0.664483418466 0.256555639189 0
-0.73915688945 0.256479990035 0
-0.812203831009 0.254973342758 0
-0.883725130054 0.252640222635 0
-0.954129154976 0.249986762481 0
-1.02356153865 0.247553091882 0
-1.09276919103 0.245239508615 0
-1.15979592588 0.172518673409 0
-1.15743110381 0.10189289586 0
-1.15489124145 0.0316274457562 0
-1.15214074705 -0.0381843629166 0
-1.14927654162 -0.107306025541 0
-1.14586378212 -0.175726966995 0
-1.14215704667 -0.24325841921 0
-1.13766792073 -0.309197495338 0
-1.13202438395 -0.373645301482 0
-1.12568449469 -0.43533533541 0
-1.11824041203 -0.49403314532 0
-1.10929641287 -0.549045199923 0
-1.10073330227 -0.600257402483 0
-1.09142016781 -0.64668109797 0
-1.08217920692 -0.689008685827 0
-1.07248153864 -0.7264284483 0
-1.06413717928 -0.760863035457 0
-1.05512332486 -0.790118138927 0
-1.04698552478 -0.81532695569 0
-1.03857183959 -0.836498516111 0
-1.03074043385 -0.854147657188 0
-1.02304671268 -0.867664298931 0
-1.01541955333 -0.877449796574 0
-1.0076556441 -0.883359245719 0
-1.0 -0.887305553657 0
-1.0 -0.888543842189 0
-1.0 -0.888194124819 0
-1.0 -0.885421005129 0
-1.0 -0.881174304838 0
-1.0 -0.875476864657 0
-1.0 -0.867148847329 0
-1.0 -0.859111372885 0
-0.975723895839 -0.846717304451 0
-0.953973760628 -0.841199825756 0
-0.932909128059 -0.834225649013 0
-0.913611429579 -0.825023870323 0
-0.895981168208 -0.814484202749 0
-0.879471941665 -0.802975506217 0
-0.864431942222 -0.79081377155 0
-0.850357719999 -0.778293283325 0
-0.837201642124 -0.765681982172 0
-0.825170207049 -0.752981412984 0
-0.813961498074 -0.740459126509 0
-0.803675800654 -0.728284861638 0
-0.794164119634 -0.716295116133 0
-0.785260720082 -0.704820855361 0
-0.777107400322 -0.693779968708 0
-0.769529941805 -0.683249793823 0
-0.762485936105 -0.673149607653 0
-0.755924473366 -0.663557613372 0
-0.749910270399 -0.654526301863 0
-0.744290062666 -0.645912799799 0
-0.739071641217 -0.637811643407 0
-0.734249969893 -0.630200279148 0
-0.729749850002 -0.623067941566 0
-0.725567659401 -0.61634799589 0
-0.721680510683 -0.610057263939 0
-0.718079791 -0.604182974194 0
-0.714727902134 -0.59868709231 0
-0.711596492001 -0.593575124448 0
-0.708686512038 -0.588799676097 0
-0.705974402988 -0.584346238237 0
-0.703448825412 -0.580205415314 0
-0.701102285813 -0.576344817444 0
-0.69891438588 -0.572759523316 0
-0.696879398024 -0.569421034402 0
-0.694978789507 -0.566331329231 0
-0.693207995973 -0.56345306379 0
-0.691557409195 -0.560784987332 0
-0.690017262376 -0.558310044108 0
-0.688583160942 -0.556015308607 0
-0.687247251934 -0.553884994155 0
-0.686000768493 -0.551914273679 0
-0.68483616519 -0.550088520942 0
-0.683749189765 -0.548393137367 0
-0.682736444905 -0.546827718605 0
-0.681791670998 -0.545376267196 0
-0.680908910106 -0.544033677144 0
-0.680085204621 -0.542789418157 0
-0.679314659114 -0.541635884907 0
-0.678593824105 -0.540570328943 0
-0.677261236641 -0.538631750947 0
-0.676587439423 -0.537679556696 0
-0.675904703202 -0.536720601071 0
-0.675209147378 -0.535761085698 0
-0.674506863203 -0.534794724895 0
-0.673793114911 -0.533828031844 0
-0.673072420194 -0.532855901911 0
-0.672341249515 -0.53188274655 0
-0.671601679916 -0.530903530431 0
-0.670853410748 -0.529921706134 0
-0.670100223575 -0.528939922594 0
-0.66933808106 -0.52795069783 0
-0.668565911788 -0.526960815649 0
-0.667788314976 -0.525966230326 0
-0.66700122002 -0.524969408937 0
-0.666209022907 -0.523969965464 0
-0.66541008165 -0.522969519221 0
-0.664603516356 -0.521961693074 0
-0.663787866058 -0.520954679525 0
-0.662964713677 -0.519942725113 0
-0.662134386815 -0.518927724859 0
-0.661299604914 -0.517913376568 0
-0.660458546822 -0.51689335925 0
-0.659611259081 -0.515871157511 0
-0.658755373013 -0.514845475056 0
-0.657891404215 -0.513818759614 0
-0.657023596655 -0.512788667009 0
-0.656147694267 -0.511756124163 0
-0.655267901665 -0.510720949598 0
-0.654378221368 -0.509684911228 0
-0.653482908851 -0.508645002034 0
-0.652583131108 -0.507601373605 0
-0.65167447555 -0.506556803376 0
-0.650762011487 -0.505509801576 0
-0.649840408624 -0.504460370057 0
-0.648916371596 -0.503409910561 0
-0.647985363477 -0.50235165058 0
-0.647046309251 -0.50129700543 0
-0.646101297518 -0.500238278321 0
-0.64515070681 -0.499176575874 0
-0.644195567397 -0.498112822221 0
-0.64323257536 -0.497046919054 0
-0.642265591905 -0.495978968906 0
-0.641291945838 -0.494907753432 0
-0.640314701499 -0.493838288272 0
-0.639331115919 -0.492764027605 0
-0.638337677942 -0.491689187007 0
-0.637341909167 -0.490610673197 0
-0.636338946409 -0.489531737223 0
-0.635332435256 -0.488451777881 0
-0.634317734203 -0.48736800388 0
-0.633296652859 -0.486282084984 0
-0.632273233393 -0.485196394756 0
-0.631241163558 -0.484107710484 0
-0.630205789268 -0.483015654156 0
-0.6291670894 -0.481924083708 0
-0.628118979715 -0.480832255692 0
-0.627067481317 -0.479737413822 0
-0.626007743142 -0.478641054482 0
-0.624944488617 -0.477542556396 0
-0.623874251258 -0.476441593367 0
-0.622801215422 -0.475340429056 0
-0.621718648893 -0.474236908629 0
-0.620634104246 -0.473133770382 0
-0.619545950401 -0.472027583074 0
-0.618450509343 -0.470919016434 0
-0.617347747959 -0.469811306657 0
-0.616243232199 -0.468702412005 0
-0.615129598131 -0.467591105929 0
-0.614015523612 -0.466481192677 0
-0.612895422955 -0.465365716885 0
-0.611766240469 -0.464251442034 0
-0.610634481588 -0.463134906284 0
-0.609495011669 -0.462016053008 0
-0.608353540641 -0.460898359996 0
-0.607206846244 -0.459776006846 0
-0.606052565544 -0.458655949122 0
-0.60489609383 -0.457533356764 0
-0.603732705031 -0.456410756482 0
-0.602565782213 -0.455288360139 0
-0.601391309513 -0.454163829077 0
-0.60021482431 -0.453039242915 0
-0.599030332312 -0.451911875642 0
-0.597844228089 -0.450785795442 0
-0.596653135795 -0.449656096546 0
-0.595454944033 -0.448527853598 0
-0.594252255586 -0.447398864713 0
-0.593044830082 -0.446267205838 0
-0.591833830669 -0.445136275103 0
-0.590615202108 -0.444003577325 0
-0.58939519366 -0.442871197404 0
-0.58816797402 -0.441738342452 0
-0.586938139024 -0.440605769407 0
-0.585699830176 -0.439471459371 0
-0.584458114925 -0.438336319615 0
-0.583215229749 -0.437199428369 0
-0.581965814501 -0.436063232045 0
-0.580709788757 -0.434927235776 0
-0.579452298675 -0.433790840253 0
-0.578187391104 -0.432654226793 0
-0.576919396767 -0.431517161757 0
-0.575644526715 -0.43037853139 0
-0.574367938425 -0.429240477033 0
-0.573084707976 -0.428100486314 0
-0.57180009215 -0.4269626459 0
-0.570506393724 -0.425823604131 0
-0.569211359915 -0.424684330486 0
-0.567910129727 -0.423544962108 0
-0.566604199413 -0.422405490735 0
-0.565292654483 -0.42126305476 0
-0.563981440976 -0.420125260625 0
-0.562663975415 -0.418983961383 0
-0.561338762778 -0.417843011019 0
-0.560012143479 -0.41670226882 0
-0.55867885319 -0.415560906384 0
-0.557342653696 -0.414418028539 0
-0.556004769655 -0.413277065148 0
-0.554661342562 -0.412136331812 0
-0.55331158483 -0.410994471254 0
-0.551959020218 -0.409857068253 0
-0.550603220521 -0.408717590398 0
-0.549240825443 -0.407577874513 0
-0.547873528292 -0.406436575223 0
-0.546505217685 -0.405296378528 0
-0.545129304006 -0.404155687985 0
-0.543751546222 -0.403016636325 0
-0.542371661796 -0.401876317335 0
-0.540986452483 -0.400737136657 0
-0.539594767547 -0.399599248136 0
-0.538202162915 -0.398461623942 0
-0.536802421374 -0.397323845193 0
-0.53540061435 -0.396186172486 0
-0.53399265724 -0.395047330006 0
-0.532583784818 -0.393910150157 0
-0.531169363948 -0.392772010669 0
-0.529752664022 -0.39163674848 0
-0.528333070979 -0.390500584164 0
-0.526907761159 -0.389363693506 0
-0.525478857173 -0.388229937783 0
-0.524045518494 -0.387096964518 0
-0.522607087525 -0.385961990022 0
-0.521167123006 -0.384829838827 0
-0.51972272218 -0.383696502182 0
-0.518276603314 -0.382563798619 0
-0.516825299384 -0.38143101856 0
-0.515367718142 -0.380299785791 0
-0.513909753394 -0.379168829938 0
-0.512446559755 -0.378038555569 0
-0.510981797614 -0.376910728166 0
-0.509510901618 -0.375781634299 0
-0.508040308753 -0.374655097974 0
-0.506563823641 -0.373527593276 0
-0.505086216324 -0.372402848409 0
-0.503601937554 -0.371277443673 0
-0.502117270022 -0.370153943219 0
-0.500625185875 -0.369028571126 0
-0.499133525227 -0.367905309841 0
-0.497636637102 -0.36678249462 0
-0.496138628897 -0.365662818817 0
-0.494634635781 -0.364542576279 0
-0.4931295915 -0.363424570843 0
-0.491617954813 -0.362305006617 0
-0.490106893593 -0.361188151515 0
-0.488590488064 -0.360071629672 0
-0.48707262855 -0.358955968989 0
-0.485551201915 -0.357839798402 0
-0.48402637537 -0.356725616897 0
-0.48249939223 -0.355613305627 0
-0.480967410578 -0.354500404257 0
-0.479435240039 -0.35339068093 0
-0.477897276437 -0.352279912409 0
-0.476359764023 -0.351172271578 0
-0.474815614077 -0.35006429917 0
-0.473270545553 -0.348957447339 0
-0.471724152135 -0.347851482855 0
-0.470172391553 -0.34674549946 0
-0.468620374286 -0.345642386208 0
-0.467063071548 -0.34453875838 0
-0.465506383116 -0.343438028522 0
-0.463944795343 -0.342337245161 0
-0.462382967395 -0.341239567 0
-0.460816175295 -0.340141558204 0
-0.459247563415 -0.339045641063 0
-0.457677899832 -0.33794979918 0
-0.456105127348 -0.336855204982 0
-0.454528282462 -0.335761479259 0
-0.452951771319 -0.33466982294 0
-0.45136982988 -0.33357791459 0
-0.449787383421 -0.332488080105 0
-0.448204968012 -0.331399507672 0
-0.446617823454 -0.330313128426 0
-0.445030296499 -0.329227363421 0
-0.443436958554 -0.328141043373 0
-0.4418441859 -0.327057711425 0
-0.440250221222 -0.325974528369 0
-0.438655173317 -0.324893252403 0
-0.437055542109 -0.323813300703 0
-0.43545756485 -0.32273675228 0
-0.433853609734 -0.321659755109 0
-0.432250145188 -0.320584489219 0
-0.430645774883 -0.319510595194 0
-0.429036928796 -0.318437292236 0
-0.427429306485 -0.317367140965 0
-0.425818631172 -0.316297352387 0
-0.424206580973 -0.315229150298 0
-0.42259212544 -0.314160604494 0
-0.42097826963 -0.313096059646 0
-0.419359751261 -0.312030230499 0
-0.417742361208 -0.310967728233 0
-0.416124401163 -0.309906071825 0
-0.414502696415 -0.308845161681 0
-0.412881357186 -0.307786989067 0
-0.411259406046 -0.306729013462 0
-0.409634416685 -0.305672241277 0
-0.408008733682 -0.304618788667 0
-0.406383210154 -0.303565753255 0
-0.404756518774 -0.302513596252 0
-0.403126610133 -0.301462586288 0
-0.401498913356 -0.300414620216 0
-0.399867147795 -0.299366237425 0
-0.398237382511 -0.298321201051 0
-0.396606576147 -0.29727714474 0
-0.394975021981 -0.296235279541 0
-0.393342464904 -0.295194941712 0
-0.391706760164 -0.294153157611 0
-0.390074048628 -0.293115687919 0
-0.388437262776 -0.29207709924 0
-0.386803709546 -0.29104288088 0
-0.385166356973 -0.290007156666 0
-0.383532871885 -0.288975269852 0
-0.381895832084 -0.28794305617 0
-0.380261021558 -0.286914289113 0
-0.378624124434 -0.285886114776 0
-0.37698758549 -0.284860703524 0
-0.375351708919 -0.28383680414 0
-0.373715100658 -0.282813051718 0
-0.372078416201 -0.281791210846 0
-0.370443691292 -0.280772489657 0
-0.368805817227 -0.279752835915 0
-0.367171405088 -0.278737321029 0
-0.365533924087 -0.277720406997 0
-0.363900995894 -0.276707606301 0
-0.362265140108 -0.275694716908 0
-0.360632961451 -0.27468620086 0
-0.358997174787 -0.273675726005 0
-0.357366673074 -0.272669209049 0
-0.355732521216 -0.271662437087 0
-0.35410117477 -0.270659449984 0
-0.352468011509 -0.269655129154 0
-0.350840939952 -0.268657015122 0
-0.34921024327 -0.267657620587 0
-0.347583991989 -0.266662395562 0
-0.345955285832 -0.265666381339 0
-0.344330733312 -0.264673572324 0
-0.342704797731 -0.263680038479 0
-0.341079441989 -0.262689145869 0
-0.339458118169 -0.261701508558 0
-0.337838077279 -0.260716563336 0
-0.336222188797 -0.259732035541 0
-0.334602711657 -0.258748515971 0
-0.332985756295 -0.257769554011 0
-0.331370298488 -0.256790009835 0
-0.329757347264 -0.255813061303 0
-0.328147648729 -0.254839909192 0
-0.326535768907 -0.253865264058 0
-0.324929942376 -0.252894663028 0
-0.323323150418 -0.251923878314 0
-0.321722485962 -0.250957977738 0
-0.320118380669 -0.249992384436 0
-0.318517444324 -0.249030915409 0
-0.316917227305 -0.248068987132 0
-0.315320097938 -0.247108682816 0
-0.313728844715 -0.2461508921 0
-0.312138049708 -0.24519374661 0
-0.310549818025 -0.244240333588 0
-0.308964818033 -0.243292310664 0
-0.307384164698 -0.242344109902 0
-0.305800325483 -0.241395880212 0
-0.304224905228 -0.240453268448 0
-0.302648029327 -0.239511151814 0
-0.301073458022 -0.238573107789 0
-0.29950313727 -0.237632498723 0
-0.29793885879 -0.236696463754 0
-0.296371383901 -0.235765107639 0
-0.294812378343 -0.234836156649 0
-0.293253868931 -0.233905056321 0
-0.291700780085 -0.232980676642 0
-0.290153190493 -0.232059443391 0
-0.288603948024 -0.231136802466 0
-0.28705926303 -0.230218683754 0
-0.28552004508 -0.229303905242 0
-0.283981332169 -0.228388233207 0
-0.282449435998 -0.227478824578 0
-0.280918594814 -0.226568775253 0
-0.279395433465 -0.225664980383 0
-0.277872877878 -0.224760834847 0
-0.276358081515 -0.223861572964 0
-0.274847613536 -0.222965172885 0
-0.273339121918 -0.222074116778 0
-0.27183138975 -0.221187353832 0
-0.270331641952 -0.220304349149 0
-0.268832093183 -0.219419733477 0
-0.267341987676 -0.218542038327 0
-0.265851306926 -0.217663308101 0
-0.264367834361 -0.216790931745 0
-0.262887504257 -0.215918579489 0
-0.261414629752 -0.21505331228 0
-0.259944388964 -0.214188380498 0
-0.258480757566 -0.213330262339 0
-0.257021515062 -0.212474403423 0
-0.255568790071 -0.211625401178 0
-0.254119239996 -0.210775550002 0
-0.252676353341 -0.209932932379 0
-0.251234251432 -0.209095999099 0
-0.249803389421 -0.208264404513 0
-0.248376424078 -0.207432726673 0
-0.246956640358 -0.20661230669 0
-0.2455421072 -0.2057947162 0
-0.244131357821 -0.204978704919 0
-0.242727857779 -0.204174252411 0
-0.241326740785 -0.203374068443 0
-0.239931118705 -0.202580222793 0
-0.238542814705 -0.201789455937 0
-0.237161263989 -0.201009256936 0
-0.235787151818 -0.200236089121 0
-0.23441587673 -0.199473583003 0
-0.233050154024 -0.198716778549 0
-0.230199760388 -0.197158022913 0
-0.228324989933 -0.196142165602 0
-0.225975558045 -0.194869507046 0
-0.223026416518 -0.193275522217 0
-0.219332115212 -0.191272827088 0
-0.214705518145 -0.188740256838 0
-0.208953163272 -0.185521703835 0
-0.201798078237 -0.181456079742 0
-0.192928606146 -0.176312046951 0
-0.181997793035 -0.169635015091 0
-0.16855468424 -0.161098719069 0
-0.152231597744 -0.150061041114 0
-0.132729620263 -0.135725987441 0
-0.10986950065 -0.116078486594 0
-0.083199656661 -0.0901329711073 0
-0.0513980490331 -0.054990434556 0
-0.76298168447 -0.124246447998 0
-0.420278220543 -0.017834287102 0
-0.872511159061 -0.411180903732 0
-0.898956898603 -0.634774424252 0
-0.572601489573 -0.175908539433 0
-0.706750542004 -0.339929855907 0
-0.768863499977 -0.482284498295 0
-0.386079212692 -0.1240376238 0
-0.209890921992 -0.0719744714204 0
-0.799610761876 -0.594837255084 0
-0.47810405656 -0.216099313679 0
-0.589895485599 -0.301783429583 0
-0.647381231668 -0.389536634011 0
-0.693081711546 -0.463812752367 0
-0.738489053113 -0.535125555823 0
-0.37828327615 -0.187866487032 0
-0.280560794997 -0.140243906906 0
-0.431167831121 -0.242876357772 0
-0.502117092284 -0.283911807103 0
-0.547277679862 -0.333830394477 0
-0.591697579126 -0.380657694193 0
-0.625509482704 -0.421238067289 0
-0.649176558529 -0.457942571489 0
-0.682015704146 -0.495774216765 0
-0.701286899162 -0.530887922166 0
-0.735321193251 -0.574528078505 0
-0.320197814997 -0.18633626326 0
-0.37693662809 -0.229427115466 0
-0.267864460599 -0.171888620433 0
-0.453357380388 -0.281974581361 0
-0.483039697276 -0.310696128831 0
-0.511216877686 -0.335792079839 0
-0.341460160951 -0.222403506075 0
-0.218270713751 -0.151748056731 0
-0.536005188366 -0.359040330655 0
-0.558968210875 -0.381696805293 0
-0.585943575066 -0.403976387016 0
-0.402375373848 -0.260073396139 0
-0.707416679332 -0.553097577979 0
-0.65353951024 -0.479796182194 0
-0.663182110823 -0.498269265406 0
-0.677095215681 -0.516650915975 0
-0.68603009285 -0.532383721705 0
-0.309591690423 -0.21162598752 0
-0.846716898469 -0.694817804639 0
-0.420566891237 -0.280859034359 0
-0.599496811608 -0.424033746404 0
-0.620255798681 -0.44463103558 0
-0.283679540505 -0.201094407539 0
-0.630926960366 -0.461761870117 0
-0.376250925212 -0.254935548564 0
-0.353563537796 -0.244168284159 0
-0.774171751045 -0.628556986909 0
-0.259499228158 -0.190992195531 0
-0.235757004457 -0.178966373918 0
-0.438330693001 -0.298270507878 0
-0.456398814442 -0.311084601368 0
-0.926742238334 -0.802555268915 0
-0.472259047768 -0.324951955278 0
-0.488437417347 -0.337192578182 0
-0.690298785238 -0.543209796494 0
-0.500866430819 -0.349347781255 0
-0.515373766093 -0.360391628891 0
-0.529079375887 -0.371136370713 0
-0.635421267361 -0.473177642646 0
-0.642759020689 -0.483939928895 0
-0.562813186023 -0.397163847343 0
-0.572422350562 -0.409628850788 0
-0.337087499637 -0.240506345365 0
-0.321267304476 -0.232309014276 0
-0.386821724349 -0.271104669601 0
-0.402045026376 -0.280341225929 0
-0.663372408158 -0.507119394153 0
-0.601374425975 -0.436673817057 0
-0.714198538211 -0.570810146879 0
-0.538713780971 -0.38174399774 0
-0.649775752973 -0.492922333274 0
-0.581258038745 -0.420113361617 0
-0.608755365705 -0.44720715145 0
-0.667274828508 -0.515488798681 0
-0.673128648841 -0.523627032942 0
-0.698176933197 -0.555394745236 0
-0.307038254104 -0.226716737 0
-0.293786368804 -0.219356858719 0
-0.736686326189 -0.599450067628 0
-0.143056409181 -0.0883975563363 0
-0.588765738766 -0.429345476774 0
-0.615230499742 -0.455795785416 0
-0.547224247174 -0.391106656446 0
-0.677189283339 -0.530603009804 0
-0.363638574398 -0.259455772102 0
-0.423636770775 -0.297455121445 0
-0.375301207656 -0.268955977188 0
-0.282266688229 -0.215528836749 0
-0.269438337726 -0.206249224808 0
-0.410742777505 -0.291299877641 0
-0.624334008764 -0.466397818204 0
-0.249057023582 -0.19453550646 0
-0.726899792345 -0.418294442508 0
-0.352361436231 -0.256869868097 0
-0.196477906384 0.0373272908126 0
-0.441292382 -0.310464993444 0
-0.65259545097 -0.499567070239 0
-0.680054327683 -0.536237937939 0
-0.862759061404 -0.553939689804 0
-0.95192002061 -0.743961249636 0
-0.86450725603 -0.756646274769 0
-0.795150343598 -0.672932873588 0
-0.684318332494 -0.542048505962 0
-0.45850855348 -0.324435237881 0
-0.211125417258 -0.165565478722 0
-0.600014791626 -0.0578762516755 0
-0.238809557471 -0.191579320384 0
-0.226977789978 -0.184188398369 0
-0.47491953208 -0.33519082154 0
-0.819048265622 -0.271652966307 0
-0.470064647007 -0.251422227335 0
-0.560675068637 -0.405616496707 0
-0.542406338579 -0.249514524851 0
-0.260926007683 -0.204782690951 0
-0.430133756484 -0.30573098914 0
-0.651660146309 -0.254560771844 0
-0.72320153709 -0.498421324219 0
-0.447471336439 -0.318986722074 0
-0.666475064352 -0.437554220457 0
-0.48883912936 -0.347035693973 0
-0.390784583255 -0.281417567739 0
-0.465374811183 -0.33163504384 0
-0.63327638356 -0.478119688027 0
-0.551134300499 -0.39874111553 0
-0.626846117367 -0.47225777344 0
-0.655801687849 -0.504931617017 0
-0.659828879502 -0.510234251247 0
-0.343990523276 -0.253630568872 0
-0.480806125874 -0.148804122908 0
-0.799335742083 -0.544536759384 0
-0.567099173645 -0.360350712951 0
-0.958713118721 -0.858741048316 0
-0.674222185024 -0.474793848358 0
-0.501993302194 -0.35835485545 0
-0.304131838976 -0.0409630305987 0
-0.516976619082 -0.369807425541 0
-0.605505442488 -0.344312692496 0
-0.327908388953 -0.243355262845 0
-0.95162822258 -0.164726991235 0
-0.883026902381 0.0357891327414 0
-0.688274886671 -0.548162218085 0