# vtk DataFile Version 2.0
Generated with Solid Solver
ASCII
DATASET UNSTRUCTURED_GRID
POINTS 4484 float 
0.0 0.0 0.0
10.0 0.0 0.0
10.0 20.0 0.0
-20.0 20.0 0.0
-20.0 10.0 0.0
-5.0 10.0 0.0
0.0 5.0 0.0
1.11111111111 0.0 0.0
2.22222222222 0.0 0.0
3.33333333333 0.0 0.0
4.44444444444 0.0 0.0
5.55555555555 0.0 0.0
6.66666666666 0.0 0.0
7.77777777777 0.0 0.0
8.88888888889 0.0 0.0
10.0 1.17647058823 0.0
10.0 2.35294117647 0.0
10.0 3.5294117647 0.0
10.0 4.70588235293 0.0
10.0 5.88235294116 0.0
10.0 7.0588235294 0.0
10.0 8.23529411763 0.0
10.0 9.41176470587 0.0
10.0 10.5882352941 0.0
10.0 11.7647058823 0.0
10.0 12.9411764706 0.0
10.0 14.1176470588 0.0
10.0 15.2941176471 0.0
10.0 16.4705882353 0.0
10.0 17.6470588235 0.0
10.0 18.8235294118 0.0
8.8 20.0 0.0
7.6 20.0 0.0
6.39999999999 20.0 0.0
5.19999999999 20.0 0.0
4.0 20.0 0.0
2.8 20.0 0.0
1.6 20.0 0.0
0.400000000005 20.0 0.0
-0.79999999999 20.0 0.0
-1.99999999999 20.0 0.0
-3.19999999998 20.0 0.0
-4.39999999998 20.0 0.0
-5.59999999997 20.0 0.0
-6.79999999998 20.0 0.0
-7.99999999998 20.0 0.0
-9.19999999998 20.0 0.0
-10.4 20.0 0.0
-11.6 20.0 0.0
-12.8 20.0 0.0
-14.0 20.0 0.0
-15.2 20.0 0.0
-16.4 20.0 0.0
-17.6 20.0 0.0
-18.8 20.0 0.0
-20.0 18.8888888889 0.0
-20.0 17.7777777778 0.0
-20.0 16.6666666667 0.0
-20.0 15.5555555556 0.0
-20.0 14.4444444444 0.0
-20.0 13.3333333333 0.0
-20.0 12.2222222222 0.0
-20.0 11.1111111111 0.0
-18.848092502 10.0 0.0
-17.7828751182 10.0 0.0
-16.7978238296 10.0 0.0
-15.8869054316 10.0 0.0
-15.0445409688 10.0 0.0
-14.2655711094 10.0 0.0
-13.5452250657 10.0 0.0
-12.8790905124 10.0 0.0
-12.2630880938 10.0 0.0
-11.6934447292 10.0 0.0
-11.1666715362 10.0 0.0
-10.6795422524 10.0 0.0
-10.2290733255 10.0 0.0
-9.8125057789 10.0 0.0
-9.42728821879 10.0 0.0
-9.07106142797 10.0 0.0
-8.74164341353 10.0 0.0
-8.43701679755 10.0 0.0
-8.15531577579 10.0 0.0
-7.89481496543 10.0 0.0
-7.6539189469 10.0 0.0
-7.43115227515 10.0 0.0
-7.22515055976 10.0 0.0
-7.034652113 10.0 0.0
-6.85849015483 10.0 0.0
-6.69558581455 10.0 0.0
-6.54494132403 10.0 0.0
-6.40563404556 10.0 0.0
-6.27681073601 10.0 0.0
-6.15768239686 10.0 0.0
-6.04751944207 10.0 0.0
-5.94564710752 10.0 0.0
-5.85144146801 10.0 0.0
-5.76432558625 10.0 0.0
-5.68376583343 10.0 0.0
-5.60926885222 10.0 0.0
-5.54037836642 10.0 0.0
-5.47667244508 10.0 0.0
-5.41776089423 10.0 0.0
-5.36328290849 10.0 0.0
-5.31290482252 10.0 0.0
-5.2663180986 10.0 0.0
-5.22323738128 10.0 0.0
-5.18339883885 10.0 0.0
-5.14655846354 10.0 0.0
-5.11249061724 10.0 0.0
-5.08098665333 10.0 0.0
-5.05185360877 10.0 0.0
-5.02491306227 10.0 0.0
-4.97605502557 9.99994266349 0.0
-4.95211060031 9.99977065528 0.0
-4.92816727338 9.99948397931 0.0
-4.9042255939 9.99908264216 0.0
-4.88028611096 9.99856665303 0.0
-4.85634937362 9.99793602375 0.0
-4.83241593085 9.9971907688 0.0
-4.80848633155 9.99633090525 0.0
-4.78456112454 9.99535645284 0.0
-4.76064085854 9.99426743391 0.0
-4.73672608215 9.99306387343 0.0
-4.71281734383 9.99174579902 0.0
-4.68891519194 9.99031324089 0.0
-4.66502017466 9.98876623191 0.0
-4.64113284 9.98710480755 0.0
-4.61725373582 9.98532900592 0.0
-4.59338340977 9.98343886775 0.0
-4.56952240932 9.98143443638 0.0
-4.54567128169 9.97931575778 0.0
-4.52183057392 9.97708288056 0.0
-4.49800083277 9.97473585591 0.0
-4.47418260478 9.97227473767 0.0
-4.45037643619 9.96969958228 0.0
-4.42658287301 9.9670104488 0.0
-4.40280246092 9.9642073989 0.0
-4.37903574532 9.96129049688 0.0
-4.35528327129 9.95825980962 0.0
-4.33154558358 9.95511540664 0.0
-4.30782322661 9.95185736006 0.0
-4.28411674443 9.94848574459 0.0
-4.26042668076 9.94500063756 0.0
-4.23675357891 9.9414021189 0.0
-4.21309798181 9.93769027115 0.0
-4.189460432 9.93386517942 0.0
-4.16584147159 9.92992693145 0.0
-4.14224164227 9.92587561757 0.0
-4.11866148531 9.92171133068 0.0
-4.09510154149 9.91743416629 0.0
-4.07156235116 9.9130442225 0.0
-4.04804445418 9.90854159998 0.0
-4.02454838992 9.90392640202 0.0
-4.00107469726 9.89919873444 0.0
-3.97762391455 9.89435870568 0.0
-3.95419657964 9.88940642675 0.0
-3.93079322981 9.88434201122 0.0
-3.90741440182 9.87916557524 0.0
-3.88406063184 9.87387723754 0.0
-3.86073245549 9.86847711939 0.0
-3.83743040779 9.86296534465 0.0
-3.81415502316 9.85734203973 0.0
-3.79090683541 9.85160733359 0.0
-3.76768637774 9.84576135776 0.0
-3.74449418269 9.83980424632 0.0
-3.72133078217 9.83373613589 0.0
-3.69819670743 9.82755716563 0.0
-3.67509248902 9.82126747727 0.0
-3.65201865684 9.81486721504 0.0
-3.62897574008 9.80835652575 0.0
-3.60596426722 9.80173555871 0.0
-3.58298476602 9.79500446576 0.0
-3.56003776349 9.78816340129 0.0
-3.53712378594 9.78121252219 0.0
-3.51424335886 9.77415198787 0.0
-3.49139700703 9.76698196028 0.0
-3.46858525441 9.75970260384 0.0
-3.44580862417 9.75231408551 0.0
-3.4230676387 9.74481657474 0.0
-3.40036281955 9.73721024348 0.0
-3.37769468745 9.72949526618 0.0
-3.35506376227 9.72167181979 0.0
-3.33247056305 9.71374008372 0.0
-3.30991560796 9.7057002399 0.0
-3.28739941429 9.6975524727 0.0
-3.26492249843 9.68929696901 0.0
-3.24248537588 9.68093391814 0.0
-3.22008856124 9.67246351191 0.0
-3.19773256816 9.66388594459 0.0
-3.17541790937 9.65520141289 0.0
-3.15314509664 9.64641011599 0.0
-3.1309146408 9.63751225551 0.0
-3.10872705169 9.62850803553 0.0
-3.08658283818 9.61939766256 0.0
-3.06448250813 9.61018134553 0.0
-3.04242656841 9.60085929582 0.0
-3.02041552485 9.59143172722 0.0
-2.99844988229 9.58189885596 0.0
-2.97653014448 9.57226090067 0.0
-2.95465681415 9.56251808238 0.0
-2.93283039295 9.55267062456 0.0
-2.91105138147 9.54271875303 0.0
-2.8893202792 9.53266269606 0.0
-2.86763758453 9.52250268426 0.0
-2.84600379475 9.51223895065 0.0
-2.82441940602 9.50187173063 0.0
-2.80288491336 9.49140126197 0.0
-2.78140081067 9.48082778481 0.0
-2.75996759067 9.47015154163 0.0
-2.73858574493 9.4593727773 0.0
-2.71725576382 9.44849173903 0.0
-2.69597813655 9.43750867636 0.0
-2.67475335111 9.42642384119 0.0
-2.65358189428 9.41523748774 0.0
-2.63246425161 9.40394987257 0.0
-2.61140090744 9.39256125456 0.0
-2.59039234485 9.38107189489 0.0
-2.56943904565 9.36948205708 0.0
-2.5485414904 9.35779200693 0.0
-2.52770015838 9.34600201255 0.0
-2.50691552757 9.33411234434 0.0
-2.48618807468 9.32212327498 0.0
-2.46551827506 9.31003507943 0.0
-2.44490660277 9.29784803494 0.0
-2.42435353054 9.28556242101 0.0
-2.40385952974 9.2731785194 0.0
-2.38342507039 9.26069661414 0.0
-2.36305062115 9.24811699149 0.0
-2.3427366493 9.23543993996 0.0
-2.32248362072 9.22266575029 0.0
-2.30229199993 9.20979471547 0.0
-2.28216225 9.19682713066 0.0
-2.2620948326 9.1837632933 0.0
-2.24209020797 9.17060350297 0.0
-2.22214883491 9.15734806152 0.0
-2.20227117076 9.14399727293 0.0
-2.18245767141 9.13055144341 0.0
-2.16270879128 9.11701088133 0.0
-2.1430249833 9.10337589723 0.0
-2.12340669891 9.08964680384 0.0
-2.10385438805 9.07582391602 0.0
-2.08436849913 9.06190755079 0.0
-2.06494947907 9.04789802732 0.0
-2.04559777323 9.03379566692 0.0
-2.02631382544 9.01960079302 0.0
-2.00709807795 9.00531373116 0.0
-1.98795097149 8.99093480902 0.0
-1.96887294517 8.97646435637 0.0
-1.94986443656 8.96190270509 0.0
-1.93092588159 8.94725018914 0.0
-1.91205771462 8.93250714458 0.0
-1.89326036838 8.91767390952 0.0
-1.87453427399 8.90275082416 0.0
-1.85587986091 8.88773823076 0.0
-1.83729755698 8.87263647363 0.0
-1.81878778837 8.85744589911 0.0
-1.80035097961 8.84216685561 0.0
-1.78198755353 8.82679969353 0.0
-1.76369793129 8.81134476531 0.0
-1.74548253235 8.79580242541 0.0
-1.72734177448 8.78017303029 0.0
-1.70927607373 8.7644569384 0.0
-1.69128584443 8.74865451019 0.0
-1.67337149918 8.73276610807 0.0
-1.65553344883 8.71679209643 0.0
-1.6377721025 8.70073284165 0.0
-1.62008786753 8.68458871202 0.0
-1.6024811495 8.66836007781 0.0
-1.58495235222 8.65204731122 0.0
-1.56750187771 8.63565078637 0.0
-1.55013012618 8.61917087932 0.0
-1.53283749605 8.60260796801 0.0
-1.51562438391 8.58596243232 0.0
-1.49849118455 8.569234654 0.0
-1.4814382909 8.5524250167 0.0
-1.46446609407 8.53553390594 0.0
-1.44757498331 8.51856170911 0.0
-1.43076534601 8.50150881547 0.0
-1.41403756769 8.4843756161 0.0
-1.397392032 8.46716250397 0.0
-1.3808291207 8.44986987383 0.0
-1.36434921364 8.4324981223 0.0
-1.34795268879 8.41504764779 0.0
-1.3316399222 8.39751885051 0.0
-1.31541128799 8.37991213249 0.0
-1.29926715836 8.36222789752 0.0
-1.28320790358 8.34446655118 0.0
-1.26723389195 8.32662850083 0.0
-1.25134548982 8.30871415558 0.0
-1.23554306161 8.29072392628 0.0
-1.21982696972 8.27265822553 0.0
-1.2041975746 8.25451746766 0.0
-1.1886552347 8.23630206872 0.0
-1.17320030649 8.21801244648 0.0
-1.1578331444 8.1996490204 0.0
-1.1425541009 8.18121221164 0.0
-1.12736352638 8.16270244304 0.0
-1.11226176925 8.14412013911 0.0
-1.09724917585 8.12546572603 0.0
-1.08232609049 8.10673963163 0.0
-1.06749285543 8.08794228539 0.0
-1.05274981087 8.06907411842 0.0
-1.03809729492 8.05013556346 0.0
-1.02353564364 8.03112705484 0.0
-1.00906519099 8.01204902852 0.0
-0.994686268851 7.99290192206 0.0
-0.980399206994 7.97368617458 0.0
-0.966204333087 7.95440222678 0.0
-0.952101972685 7.93505052094 0.0
-0.938092449219 7.91563150088 0.0
-0.924176083992 7.89614561196 0.0
-0.91035319617 7.8765933011 0.0
-0.896624102777 7.85697501671 0.0
-0.882989118683 7.83729120873 0.0
-0.869448556601 7.8175423286 0.0
-0.856002727079 7.79772882925 0.0
-0.842651938491 7.7778511651 0.0
-0.829396497032 7.75790979204 0.0
-0.816236706712 7.73790516741 0.0
-0.803172869344 7.71783775001 0.0
-0.790205284542 7.69770800008 0.0
-0.777334249712 7.67751637929 0.0
-0.764560060048 7.65726335072 0.0
-0.751883008519 7.63694937886 0.0
-0.739303385869 7.61657492962 0.0
-0.726821480606 7.59614047027 0.0
-0.714437578999 7.57564646947 0.0
-0.702151965067 7.55509339724 0.0
-0.689964920575 7.53448172495 0.0
-0.677876725029 7.51381192533 0.0
-0.665887655667 7.49308447244 0.0
-0.653997987453 7.47229984163 0.0
-0.642207993071 7.45145850961 0.0
-0.630517942922 7.43056095436 0.0
-0.618928105111 7.40960765516 0.0
-0.607438745448 7.38859909257 0.0
-0.596050127435 7.3675357484 0.0
-0.584762512266 7.34641810573 0.0
[...]
POINT_DATA 4484
VECTORS Displacement float
0.0 0.0 0
0.0 0.0 0
-0.230048768984 0.0535049867331 0
-0.2 -0.178373041966 0
-0.2 -0.171525164094 0
-0.134921812337 -0.107432128498 0
-0.0460028102633 -0.0389390958149 0
0.0 0.0 0
0.0 0.0 0
0.0 0.0 0
0.0 0.0 0
0.0 0.0 0
0.0 0.0 0
0.0 0.0 0
0.0 0.0 0
-0.0115769885474 0.0115385705822 0
-0.0207347973009 0.0210170460324 0
-0.0310149199403 0.0287723328345 0
-0.0428695255928 0.0353860785364 0
-0.0557172155608 0.0410373015509 0
-0.0699242668987 0.045555471486 0
-0.0845586076799 0.0488198653942 0
-0.0996898618744 0.0510996208051 0
-0.114874070205 0.0526718691983 0
-0.129942758307 0.0535936274172 0
-0.144899232356 0.054010067873 0
-0.159577337962 0.0541186706889 0
-0.173975129762 0.0540387800352 0
-0.188165390913 0.0538717460121 0
-0.202166997371 0.0537264740276 0
-0.216116826475 0.0535953994117 0
-0.229954911123 0.0392757597502 0
-0.229820289922 0.0250549870391 0
-0.229656070299 0.0109073671333 0
-0.229460616035 -0.00315703663073 0
-0.229248576057 -0.0171006481753 0
-0.228936704104 -0.0309298017745 0
-0.228561650959 -0.0446131087445 0
-0.228016799054 -0.0580273692363 0
-0.227230956226 -0.0711891656456 0
-0.226264575515 -0.083845819211 0
-0.225036018068 -0.0959510561401 0
-0.223460081463 -0.107364612817 0
-0.221897120268 -0.118028146189 0
-0.220122605593 -0.12775718301 0
-0.218300135884 -0.136660006286 0
-0.216323084291 -0.144575604665 0
-0.214580831272 -0.151864394209 0
-0.212652333082 -0.158087269746 0
-0.210861813042 -0.163460032139 0
-0.208979560982 -0.167986810612 0
-0.207193801362 -0.171757462812 0
-0.205412264275 -0.174652558282 0
-0.203627711864 -0.176751776888 0
-0.201804769423 -0.178018535795 0
-0.2 -0.17894471011 0
-0.2 -0.179296715216 0
-0.2 -0.179317482125 0
-0.2 -0.178830973667 0
-0.2 -0.178036117351 0
-0.2 -0.176935559877 0
-0.2 -0.175273853156 0
-0.2 -0.173672323352 0
-0.195061277411 -0.171135898083 0
-0.190644829015 -0.16997212383 0
-0.186359427643 -0.16851431761 0
-0.182437328877 -0.166586402677 0
-0.178859291616 -0.164380901946 0
-0.175507482413 -0.161973534212 0
-0.172459615134 -0.159432471211 0
-0.169606551244 -0.156817622392 0
-0.166939666978 -0.154188694799 0
-0.164503897604 -0.15154332589 0
-0.162235922066 -0.148935718899 0
-0.160157563319 -0.146404917537 0
-0.158236284009 -0.143913212255 0
-0.156438471455 -0.14153087932 0
-0.154794095998 -0.139240670866 0
-0.15326676844 -0.137057855706 0
-0.151847118627 -0.134966459101 0
-0.150525815258 -0.132980659562 0
-0.149316158044 -0.131112426466 0
-0.148185602335 -0.129331798027 0
-0.147136721507 -0.127657719783 0
-0.146168628262 -0.126085576893 0
-0.145265662162 -0.124613165895 0
-0.14442641734 -0.123226848192 0
-0.143646984346 -0.121929192863 0
-0.142925790919 -0.120718093293 0
-0.142254774302 -0.119585245176 0
-0.141628174701 -0.118531871879 0
-0.141046304481 -0.11754831537 0
-0.140504297876 -0.116631325752 0
-0.139999831777 -0.115778837043 0
-0.139531388489 -0.114984369985 0
-0.139094883709 -0.114246728386 0
-0.138689071759 -0.113560072479 0
-0.138310323169 -0.112924621462 0
-0.137957614243 -0.112332921599 0
-0.137629009618 -0.111784475101 0
-0.137322549665 -0.111275863563 0
-0.137037352823 -0.110804371575 0
-0.136771781317 -0.110366763894 0
-0.136524138169 -0.109961982503 0
-0.136292882977 -0.109587081938 0
-0.136077117093 -0.109239059203 0
-0.135876185247 -0.108917739555 0
-0.135688807539 -0.108619885013 0
-0.135513798979 -0.108344432099 0
-0.135350546204 -0.108089222511 0
-0.135197879129 -0.107852677913 0
-0.135055125244 -0.107634218694 0
-0.134791330539 -0.107236948653 0
-0.134657942715 -0.107041943657 0
-0.134522740945 -0.106845609791 0
-0.134384986691 -0.106649220619 0
-0.134245855231 -0.106451484854 0
-0.134104437095 -0.106253726013 0
-0.133961609347 -0.106054900854 0
-0.133816682647 -0.105855915292 0
-0.133670045872 -0.105655744095 0
-0.133521665461 -0.105455058625 0
-0.133372316008 -0.105254423017 0
-0.133221133289 -0.105052322981 0
-0.133067940989 -0.104850121588 0
-0.132913644353 -0.104646995011 0
-0.132757440867 -0.104443444653 0
-0.13260020939 -0.104239396034 0
-0.132441631449 -0.104035171683 0
-0.132281484069 -0.103829494162 0
-0.132119522208 -0.103624019663 0
-0.1319560287 -0.103417578733 0
-0.131791090953 -0.103210528686 0
-0.131625270819 -0.103003639525 0
-0.131458169857 -0.102795623545 0
-0.131289821035 -0.102587202521 0
-0.131119731892 -0.102378125756 0
-0.130948013414 -0.10216886674 0
-0.130775506613 -0.101958955917 0
-0.130601361271 -0.101748559282 0
-0.130426429492 -0.10153765429 0
-0.130249507822 -0.101326628392 0
-0.130071435637 -0.101114838246 0
-0.129892460802 -0.100902317252 0
-0.129711701848 -0.100689632794 0
-0.129530172741 -0.10047649003 0
-0.129346799477 -0.100262881904 0
-0.129162940346 -0.100049101524 0
-0.128977620912 -0.0998337596866 0
-0.128790722446 -0.0996191864499 0
-0.128602604745 -0.099403830895 0
-0.12841334817 -0.0991878761382 0
-0.128223172167 -0.0989715519338 0
-0.128031400912 -0.0987548014822 0
-0.127838825956 -0.0985376684242 0
-0.127644896622 -0.0983198934008 0
-0.127450262197 -0.0981025001425 0
-0.127254327236 -0.0978841725078 0
-0.127056411313 -0.0976657723536 0
-0.126857999561 -0.0974466485019 0
-0.126658151124 -0.0972274586623 0
-0.126457583254 -0.0970081042132 0
-0.126255343381 -0.0967880128313 0
-0.12605180376 -0.0965674976287 0
-0.125847806544 -0.0963470486774 0
-0.125642060868 -0.096126035789 0
-0.125435619413 -0.0959043517512 0
-0.125228530503 -0.0956828033644 0
-0.12501954957 -0.0954612185628 0
-0.124809864579 -0.095239083838 0
-0.124598514039 -0.0950166587852 0
-0.124386446976 -0.0947938444625 0
-0.124172954075 -0.0945705383488 0
-0.123958907607 -0.0943472273491 0
-0.123742934066 -0.0941234793373 0
-0.123526555662 -0.0938998068757 0
-0.123309435245 -0.093675546015 0
-0.123090848194 -0.0934508590232 0
-0.12287079382 -0.0932263598837 0
-0.122650380489 -0.0930016549508 0
-0.122428128326 -0.092776503414 0
-0.122205778809 -0.0925516326626 0
-0.12198218404 -0.0923256898139 0
-0.121756784544 -0.092100014417 0
-0.121530846679 -0.0918739250841 0
-0.121303339795 -0.0916473915123 0
-0.121075430883 -0.0914211156595 0
-0.120846435646 -0.0911939202592 0
-0.120615956392 -0.0909672131665 0
-0.120385005339 -0.0907400350912 0
-0.120152667389 -0.0905128693846 0
-0.119919625776 -0.0902858007223 0
-0.119685042877 -0.090058312282 0
-0.119450063407 -0.089830850497 0
-0.119213451217 -0.0896028559699 0
-0.118976517858 -0.0893751489594 0
-0.118738546283 -0.0891467416435 0
-0.118499172155 -0.0889186454959 0
-0.11825889755 -0.0886904677091 0
-0.118017624534 -0.0884617482606 0
-0.117775649754 -0.0882332180959 0
-0.11753212279 -0.0880043427193 0
-0.117288326453 -0.0877755617943 0
-0.117043086679 -0.0875467115136 0
-0.116797317532 -0.0873179750135 0
-0.116549835828 -0.0870889241285 0
-0.116301651391 -0.086859735837 0
-0.116053197463 -0.0866301999176 0
-0.115803467824 -0.0864008409696 0
-0.115552403143 -0.0861715431081 0
-0.115301033413 -0.0859422028829 0
-0.115048179938 -0.0857128441846 0
-0.114794702781 -0.0854834573406 0
-0.114539816676 -0.0852537643567 0
-0.114284595101 -0.0850242201412 0
-0.114028017889 -0.08479430819 0
-0.1137711793 -0.0845648723602 0
-0.113512512196 -0.0843352220295 0
-0.113253569667 -0.0841055636284 0
-0.112993373482 -0.0838759076264 0
-0.112732249106 -0.0836462861194 0
-0.112469963658 -0.0834160843628 0
-0.112207758869 -0.0831868053427 0
-0.111944289144 -0.0829569221069 0
-0.111679261314 -0.08272711835 0
-0.111413933898 -0.0824973772982 0
-0.111147280798 -0.0822675461219 0
-0.110880011269 -0.0820374414301 0
-0.110612421575 -0.0818077408306 0
-0.110343710599 -0.0815780799062 0
-0.110073743837 -0.0813482927347 0
-0.109803239327 -0.0811193932262 0
-0.109532043979 -0.0808901115091 0
-0.109259561825 -0.0806608367306 0
-0.108986057812 -0.0804312799979 0
-0.10871234173 -0.0802019599005 0
-0.108437118104 -0.0799725636009 0
-0.108161519897 -0.0797435332134 0
-0.107885461182 -0.0795142751359 0
-0.107608379588 -0.0792852789291 0
-0.107330007311 -0.0790565617011 0
-0.107051448859 -0.0788279566739 0
-0.106771452611 -0.0785993501043 0
-0.10649103836 -0.0783708154072 0
-0.106209369159 -0.0781420524574 0
-0.105927535435 -0.0779136594754 0
-0.105644575385 -0.0776851096809 0
-0.105361168629 -0.0774571473881 0
-0.105077173616 -0.0772290437307 0
-0.104792044589 -0.0770008510256 0
-0.104506209549 -0.0767732810654 0
-0.104219513205 -0.0765459300929 0
-0.103931766374 -0.076318206736 0
-0.103643704524 -0.0760910527839 0
-0.10335474865 -0.0758637245409 0
-0.103065442173 -0.0756365496277 0
-0.102775128151 -0.075409404153 0
-0.102483559726 -0.0751825973892 0
-0.102191881085 -0.0749558747109 0
-0.101899166763 -0.0747292805824 0
-0.101606174309 -0.0745032498329 0
-0.101311928767 -0.0742769707121 0
-0.101017771214 -0.0740512331766 0
-0.100722408935 -0.0738253266864 0
-0.100426863344 -0.0736000149946 0
-0.100129982926 -0.0733745963166 0
-0.0998330437496 -0.0731496089164 0
-0.0995345900648 -0.0729242955538 0
-0.0992362128639 -0.0726994263051 0
-0.0989367970254 -0.072474634761 0
-0.0986372091842 -0.0722505373102 0
-0.0983364121174 -0.0720263433276 0
-0.0980354283705 -0.0718026463113 0
-0.0977330998525 -0.0715786759954 0
-0.0974308845905 -0.0713552401271 0
-0.0971276385341 -0.0711319049246 0
-0.0968240837859 -0.0709087984316 0
-0.0965198213429 -0.0706856303073 0
-0.0962148681692 -0.0704628420901 0
-0.0959095264776 -0.070240476935 0
-0.0956031885737 -0.0700180216625 0
-0.0952968441033 -0.0697962458144 0
-0.0949893202783 -0.0695742881892 0
-0.0946819073103 -0.069352967782 0
-0.0943732062747 -0.0691316354868 0
-0.0940642688841 -0.068910551152 0
-0.0937550999104 -0.0686897003355 0
-0.0934448358138 -0.0684688255853 0
-0.0931345743074 -0.0682485671657 0
-0.0928232590787 -0.0680282294894 0
-0.0925120894418 -0.0678084980274 0
-0.0921999587883 -0.0675887856162 0
-0.0918877974007 -0.0673697396964 0
-0.0915746503104 -0.0671506414559 0
-0.0912611550759 -0.066932001072 0
-0.0909474172516 -0.0667134242976 0
-0.0906331017804 -0.0664950917137 0
-0.0903179829695 -0.0662769645276 0
-0.0900029385151 -0.0660592814371 0
-0.0896868216437 -0.0658415733505 0
-0.0893705780221 -0.065624280739 0
-0.0890543921582 -0.0654073178678 0
-0.0887373008342 -0.0651907432742 0
-0.0884201618504 -0.0649744049554 0
-0.0881018594659 -0.0647579550439 0
-0.0877836520138 -0.0645421159757 0
-0.0874651971423 -0.0643263551123 0
-0.0871465909539 -0.0641109668138 0
-0.0868270832108 -0.0638958353276 0
-0.0865079381225 -0.0636814244735 0
-0.0861876623412 -0.0634669794956 0
-0.0858673921671 -0.0632529002963 0
-0.0855470147909 -0.063039135231 0
-0.0852257625226 -0.0628255031231 0
-0.0849047536464 -0.0626125210509 0
-0.0845831710058 -0.0623996110895 0
-0.0842613647292 -0.0621870551239 0
-0.0839390717887 -0.0619744633349 0
-0.0836169037949 -0.0617626782236 0
-0.0832938394978 -0.0615506945763 0
-0.0829709882431 -0.0613393766677 0
-0.0826480750576 -0.0611282356599 0
-0.082324450153 -0.0609172680191 0
-0.0820008717554 -0.060706891041 0
-0.0816772309803 -0.0604965958095 0
-0.0813530069251 -0.0602865138864 0
-0.0810286391478 -0.0600771399069 0
-0.0807043143692 -0.0598679092281 0
-0.0803797895978 -0.0596588048382 0
-0.080054666612 -0.059449965681 0
-0.0797299832132 -0.0592417527874 0
-0.0794045307057 -0.059033477701 0
-0.0790794823049 -0.05882589829 0
-0.0787542668832 -0.0586185098909 0
-0.0784289440032 -0.0584115919363 0
-0.078103432029 -0.0582050434368 0
-0.0777772895454 -0.0579981966119 0
-0.0774517833787 -0.0577922340475 0
-0.0771254608588 -0.057586069807 0
-0.0767998350964 -0.0573807736709 0
-0.0764734525584 -0.0571752056753 0
-0.0761478631985 -0.0569703815199 0
-0.0758216091959 -0.0567655351536 0
-0.0754957937918 -0.0565613728524 0
-0.0751696634104 -0.0563573484013 0
-0.0748435716007 -0.0561539199506 0
-0.0745176865125 -0.0559508389851 0
-0.074191591137 -0.0557477647928 0
-0.0738655590721 -0.05554504104 0
-0.0735399577588 -0.0553429975934 0
-0.073213742019 -0.0551407948158 0
-0.0728882331017 -0.0549393960574 0
-0.0725621452773 -0.0547377607461 0
-0.0722369640584 -0.0545369277032 0
-0.0719112412129 -0.0543361112796 0
-0.0715862836621 -0.0541361465247 0
-0.0712606401715 -0.0539358369834 0
-0.0709360494207 -0.0537362929691 0
-0.0706108065208 -0.0535367523024 0
-0.0702861095224 -0.0533379867681 0
-0.0699610581214 -0.0531389539813 0
-0.0696372756109 -0.0529411109412 0
-0.0693128006743 -0.0527430576402 0
-0.0689892336513 -0.0525458190882 0
-0.0686652112918 -0.0523484589545 0
-0.0683420502933 -0.0521517023668 0
-0.0680186535408 -0.0519548660743 0
-0.0676953242854 -0.0517585615926 0
-0.0673728805833 -0.0515628922303 0
-0.0670506967772 -0.0513677900693 0
-0.0667293697036 -0.0511727276905 0
-0.0664073907302 -0.0509778644929 0
-0.0660859488346 -0.0507839737108 0
-0.0657647786377 -0.0505899587174 0
-0.0654441771869 -0.0503964070648 0
-0.065124272922 -0.0502036594178 0
-0.0648039403163 -0.0500106536597 0
-0.0644847931198 -0.0498184053037 0
-0.0641655166949 -0.0496261445317 0
-0.0638474487526 -0.0494348189076 0
-0.063528813691 -0.0492436121515 0
-0.0632108062471 -0.0490532492899 0
-0.0628929243145 -0.0488628116961 0
-0.0625756729966 -0.048672650147 0
-0.0622596237417 -0.0484829686479 0
-0.0619437069363 -0.0482934284503 0
-0.0616283296908 -0.0481046304243 0
-0.0613136270559 -0.0479169365781 0
-0.0609998123954 -0.0477291824307 0
-0.0606853743926 -0.0475414320053 0
-0.0603726199345 -0.0473547331727 0
-0.060059688627 -0.0471682029567 0
-0.0597472006406 -0.0469825349859 0
-0.0594355314302 -0.0467963064033 0
-0.0591251215947 -0.0466109243536 0
-0.0588140943356 -0.0464265847058 0
-0.0585047777523 -0.0462426751007 0
-0.0581955582992 -0.0460583205528 0
-0.0578874152962 -0.0458752912451 0
-0.0575804443903 -0.0456928712051 0
-0.0572731592212 -0.045510193629 0
-0.0569667904525 -0.0453283919051 0
-0.0566615355997 -0.045147261051 0
-0.0563564009127 -0.0449659579835 0
-0.0560526232983 -0.0447858694235 0
-0.0557491017925 -0.0446056710353 0
-0.0554471035594 -0.0444266606278 0
-0.0551452851584 -0.0442476181095 0
-0.0548449663541 -0.0440694982257 0
-0.0545455851938 -0.043891922168 0
-0.0542466286146 -0.0437154125832 0
-0.0539478738608 -0.0435398050093 0
-0.0536507146433 -0.043364915561 0
-0.0533536140905 -0.0431897152649 0
-0.0530583579202 -0.0430158292226 0
-0.0527630678258 -0.0428417811466 0
-0.0524692070174 -0.0426689861915 0
-0.0521760057789 -0.0424962092336 0
-0.0518842699757 -0.0423247902094 0
-0.051593108986 -0.0421534615386 0
-0.0513032287313 -0.0419834617897 0
-0.0510142839692 -0.0418139069026 0
-0.050726593871 -0.0416456855944 0
-0.0504395797252 -0.0414772996962 0
-0.0501539059877 -0.0413103092276 0
-0.0498684562478 -0.0411445008621 0
-0.0495851962019 -0.0409796919136 0
-0.0493027434123 -0.0408148427428 0
-0.0490217422996 -0.0406521910256 0
-0.0487418451063 -0.0404900998011 0
-0.0484626905783 -0.0403283310198 0
-0.0481850303208 -0.0401688211127 0
-0.047907918881 -0.0400102081458 0
-0.0476318564897 -0.0398528391946 0
-0.0473572814377 -0.0396960740684 0
-0.047084041206 -0.0395413806814 0
-0.0468123724298 -0.0393880382775 0
-0.0465413162036 -0.0392368426634 0
-0.0462714163007 -0.0390867964275 0
-0.0457082782324 -0.0387777821324 0
-0.0453380610376 -0.0385765837085 0
-0.0448741512157 -0.0383246234054 0
-0.0442920732777 -0.0380092454812 0
-0.0435630024856 -0.0376133242817 0
-0.0426503039371 -0.0371132909704 0
-0.0415147518121 -0.0364782799176 0
-0.0401028998575 -0.0356763826506 0
-0.0383531241934 -0.0346622811252 0
-0.0361959207361 -0.0333480469113 0
-0.0335437903615 -0.0316687609774 0
-0.0303234798443 -0.0294969765079 0
-0.0264761584013 -0.0266758039678 0
-0.0219526189206 -0.0228225961656 0
-0.0166597167905 -0.0177228700369 0
-0.0103324476139 -0.0108049863611 0
-0.151303425039 -0.0222313605354 0
-0.0823200545576 -0.00262831451297 0
-0.17458691448 -0.0798581184039 0
-0.180439354659 -0.12604098528 0
-0.113173012647 -0.0334818322287 0
-0.140778142265 -0.0659716790891 0
-0.153759385725 -0.0949030275214 0
-0.0758071186675 -0.0240034800813 0
-0.0410131491518 -0.0143108393674 0
-0.160054159273 -0.118202979225 0
-0.0944050368578 -0.0419636449668 0
-0.117105630188 -0.0587191872924 0
-0.128970544954 -0.0763514805772 0
-0.13834568313 -0.091455769652 0
-0.147577767218 -0.106058936027 0
-0.0744988690614 -0.0367597692643 0
-0.0551083180492 -0.02765246724 0
-0.0852061496993 -0.0475349558669 0
-0.0994801457155 -0.0554931546953 0
-0.108698064267 -0.0654271845998 0
-0.117744102063 -0.0748079832103 0
-0.124624204164 -0.0830082951298 0
-0.129421942613 -0.0904986401173 0
-0.136064549164 -0.0981871005647 0
-0.139914852424 -0.105416963842 0
-0.14679109738 -0.11435088349 0
-0.0630907753299 -0.0366628196338 0
-0.0744507450925 -0.0450495970018 0
-0.0528137526755 -0.0339250821424 0
-0.0897991273155 -0.0553150054888 0
-0.0958192704069 -0.0610142046586 0
-0.101521680095 -0.0660074205652 0
-0.0674648439916 -0.043755745439 0
-0.043078246456 -0.0300126380162 0
-0.106539283522 -0.0706563375943 0
-0.11118545694 -0.0752071486001 0
-0.116632110616 -0.0796651097318 0
-0.0796309861292 -0.0510972571417 0
-0.141067252468 -0.110043887079 0
-0.130267672457 -0.0950407498917 0
-0.132176411022 -0.0988473746625 0
-0.134960229094 -0.102605453736 0
-0.136720246778 -0.105847236715 0
-0.0611851182336 -0.0416852208541 0
-0.169548812787 -0.138983237637 0
-0.0833325736056 -0.0552194121634 0
-0.119371527811 -0.0837536331164 0
-0.123558259098 -0.0879140076882 0
-0.0560806832278 -0.0396390569986 0
-0.12569454285 -0.0914250839422 0
-0.0744803792553 -0.0501486962903 0
-0.069976396678 -0.0480547704159 0
-0.154658100802 -0.125461506378 0
-0.0513248854394 -0.0376646106179 0
-0.0466469203833 -0.0353066009775 0
-0.0869287670255 -0.0586789480266 0
-0.090557752261 -0.061212524645 0
-0.185767862791 -0.161400123828 0
-0.0937570888276 -0.0639756200165 0
-0.0970106586884 -0.0664090318019 0
-0.137531316002 -0.108094050626 0
-0.0995206719871 -0.0688475398831 0
-0.102437106004 -0.0710491510524 0
-0.105193603121 -0.0731949831536 0
-0.126573330809 -0.0937881426069 0
-0.128030777831 -0.0959942855961 0
-0.111979893136 -0.0783943409564 0
-0.113916028884 -0.0809294230453 0
-0.0667422696095 -0.0473565526779 0
-0.063606278112 -0.0457525548732 0
-0.0766585110594 -0.0533625363784 0
-0.0796983114123 -0.0551778776247 0
-0.132162024368 -0.100708494506 0
-0.119738957437 -0.0863828894954 0
-0.142371132751 -0.113722356385 0
-0.107137132632 -0.0753384883305 0
-0.129429320013 -0.0978288967419 0
-0.11569180436 -0.0830595260542 0
-0.121214650014 -0.0885370564095 0
-0.132913916985 -0.102440200646 0
-0.134075088533 -0.104107231134 0
-0.139096186282 -0.110598750532 0
-0.0608027921447 -0.0446589934507 0
-0.0581776110976 -0.0432148366368 0
-0.146929573582 -0.119588814089 0
-0.0281492086795 -0.0176504264279 0
-0.117197449486 -0.0849387905137 0
-0.122507402226 -0.0902914585086 0
-0.108851340136 -0.0772328375503 0
-0.134868152247 -0.105544206429 0
-0.0720520132309 -0.0510833547119 0
-0.0840386792833 -0.0585690900805 0
-0.0743950327432 -0.0529602108089 0
-0.0559177486861 -0.042460344011 0
-0.0533632544687 -0.0406404202027 0
-0.0814734648418 -0.0573653622688 0
-0.124327354556 -0.0924495791993 0
-0.0493331268066 -0.0383382751007 0
-0.145109184138 -0.0818962929145 0
-0.0698377378026 -0.0505875699355 0
-0.0380056614584 0.00748975929195 0
-0.0875818083269 -0.0611492094476 0
-0.129969089998 -0.0992060301396 0
-0.135420012974 -0.106708355855 0
-0.172980156863 -0.109336005161 0
-0.191246906493 -0.148771670632 0
-0.172955906983 -0.152017863885 0
-0.158829754411 -0.134694351222 0
-0.136269237989 -0.107897944704 0
-0.0910436884764 -0.0639323608015 0
-0.0417938376615 -0.0326754295802 0
-0.118298286445 -0.00972394427011 0
-0.0473306912833 -0.0377441983307 0
-0.0449895456646 -0.0362916637666 0
-0.094330475675 -0.0660639210737 0
-0.163217888474 -0.0516854931417 0
-0.0929558778997 -0.0490848264859 0
-0.111555211254 -0.0801709629562 0
-0.107379454106 -0.0483808353853 0
-0.0517064410557 -0.0403424997398 0
-0.0853636485015 -0.0602278929519 0
-0.129347675002 -0.0489246591008 0
-0.144483965096 -0.0984846709361 0
-0.088843797904 -0.062864588825 0
-0.132926172184 -0.0861568635651 0