# vtk DataFile Version 2.0
Generated with Solid Solver
ASCII
DATASET UNSTRUCTURED_GRID
POINTS 856 float 
0.0 3.5 0.0
1.6 3.5 0.0
1.6 4.0 0.0
0.0 4.0 0.0
0.0695652173912 3.5 0.0
0.139130434782 3.5 0.0
0.208695652174 3.5 0.0
0.278260869565 3.5 0.0
0.347826086956 3.5 0.0
0.417391304347 3.5 0.0
0.486956521738 3.5 0.0
0.556521739129 3.5 0.0
0.62608695652 3.5 0.0
0.695652173911 3.5 0.0
0.765217391302 3.5 0.0
0.834782608694 3.5 0.0
0.904347826085 3.5 0.0
0.973913043477 3.5 0.0
1.04347826087 3.5 0.0
1.11304347826 3.5 0.0
1.18260869565 3.5 0.0
1.25217391304 3.5 0.0
1.32173913043 3.5 0.0
1.39130434783 3.5 0.0
1.46086956522 3.5 0.0
1.53043478261 3.5 0.0
1.6 3.56430812594 0.0
1.6 3.62270835268 0.0
1.6 3.6757434324 0.0
1.6 3.7239062376 0.0
1.6 3.76764438351 0.0
1.6 3.80736436404 0.0
1.6 3.84343531219 0.0
1.6 3.87619247117 0.0
1.6 3.90594026707 0.0
1.6 3.93295517284 0.0
1.6 3.95748825478 0.0
1.6 3.97976750982 0.0
1.58000000587 4.0 0.0
1.55999996633 4.0 0.0
1.54000002214 4.0 0.0
1.51999997198 4.0 0.0
1.50000000455 4.0 0.0
1.48000000216 4.0 0.0
1.45999997931 4.0 0.0
1.44000002484 4.0 0.0
1.41999997044 4.0 0.0
1.40000002096 4.0 0.0
1.37999999963 4.0 0.0
1.35999999626 4.0 0.0
1.34000002179 4.0 0.0
1.31999997343 4.0 0.0
1.3000000318 4.0 0.0
1.27999998783 4.0 0.0
1.26000000202 4.0 0.0
1.24000001295 4.0 0.0
1.21999998074 4.0 0.0
1.20000003685 4.0 0.0
1.17999998163 4.0 0.0
1.16000001473 4.0 0.0
1.14000000469 4.0 0.0
1.11999999139 4.0 0.0
1.10000003625 4.0 0.0
1.07999997877 4.0 0.0
1.06000002802 4.0 0.0
1.04000000338 4.0 0.0
1.02000000764 4.0 0.0
1.00000002986 4.0 0.0
0.979999980237 4.0 0.0
0.960000035522 4.0 0.0
0.939999990881 4.0 0.0
0.920000014619 4.0 0.0
0.900000017903 4.0 0.0
0.879999986222 4.0 0.0
0.860000037278 4.0 0.0
0.839999982352 4.0 0.0
0.820000022783 4.0 0.0
0.800000000002 4.0 0.0
0.779999977222 4.0 0.0
0.760000017652 4.0 0.0
0.739999962726 4.0 0.0
0.720000013782 4.0 0.0
0.699999982101 4.0 0.0
0.679999985385 4.0 0.0
0.660000009123 4.0 0.0
0.639999964482 4.0 0.0
0.620000019766 4.0 0.0
0.599999970141 4.0 0.0
0.57999999236 4.0 0.0
0.559999996622 4.0 0.0
0.539999971983 4.0 0.0
0.520000021235 4.0 0.0
0.499999963756 4.0 0.0
0.480000008612 4.0 0.0
0.459999995315 4.0 0.0
0.439999985272 4.0 0.0
0.420000018371 4.0 0.0
0.39999996315 4.0 0.0
0.380000019261 4.0 0.0
0.359999987052 4.0 0.0
0.339999997986 4.0 0.0
0.320000012172 4.0 0.0
0.299999968206 4.0 0.0
0.280000026575 4.0 0.0
0.259999978213 4.0 0.0
0.240000003742 4.0 0.0
0.220000000371 4.0 0.0
0.199999979041 4.0 0.0
0.180000029557 4.0 0.0
0.159999975162 4.0 0.0
0.140000020694 4.0 0.0
0.119999997846 4.0 0.0
0.0999999954514 4.0 0.0
0.0800000280232 4.0 0.0
0.0599999778571 4.0 0.0
0.0400000336732 4.0 0.0
0.0199999941324 4.0 0.0
0.0 3.97976750982 0.0
0.0 3.95748825478 0.0
0.0 3.93295517284 0.0
0.0 3.90594026707 0.0
0.0 3.87619247117 0.0
0.0 3.84343531219 0.0
0.0 3.80736436404 0.0
0.0 3.76764438351 0.0
0.0 3.7239062376 0.0
0.0 3.6757434324 0.0
0.0 3.62270835268 0.0
0.0 3.56430812594 0.0
0.249757905714 3.75212552678 0.0
1.35000000902 3.74954526597 0.0
0.488714190926 3.75947467509 0.0
0.727445026698 3.75983525744 0.0
0.962900270309 3.76055270856 0.0
1.17161197633 3.81755162829 0.0
0.130754031542 3.86878251069 0.0
1.46924596846 3.86878251069 0.0
0.369913852535 3.84868154079 0.0
0.603236233099 3.84763103091 0.0
0.843402107212 3.84736931152 0.0
1.05041705507 3.86611282467 0.0
0.250539323282 3.87785527135 0.0
1.34882231626 3.87787871523 0.0
0.468661896861 3.89189320321 0.0
0.704258117309 3.89639128976 0.0
0.94963922804 3.89654080835 0.0
1.25000000748 3.89875296068 0.0
1.12879020517 3.91059303421 0.0
0.548928478218 3.91905583534 0.0
0.7889268651 3.91906062813 0.0
0.0712526194949 3.93011432704 0.0
1.52874738051 3.93011432704 0.0
1.4740071133 3.74293106904 0.0
0.125992886699 3.74293106904 0.0
0.329956761073 3.92118145982 0.0
1.09412206522 3.66725831207 0.0
0.190000004299 3.92542384899 0.0
1.41098423528 3.92728100222 0.0
0.629999992124 3.92414139091 0.0
0.87000001175 3.92414140592 0.0
0.853391941071 3.71944243214 0.0
0.610032822379 3.72536074396 0.0
0.41090315692 3.92892991009 0.0
0.370435019193 3.7251305208 0.0
1.01000001875 3.93130199947 0.0
1.22823348571 3.68694249365 0.0
1.18894423177 3.93487447818 0.0
1.31063576122 3.93502724255 0.0
0.129927636183 3.94112156482 0.0
1.47007236382 3.94112156482 0.0
1.07646504896 3.76194504855 0.0
1.07000000339 3.94017719684 0.0
0.270000002394 3.93875928556 0.0
1.26759839792 3.80243333593 0.0
0.770332946246 3.83880063275 0.0
0.530342720064 3.83880306325 0.0
0.189898092614 3.63474333735 0.0
1.4101772205 3.6313147556 0.0
0.942883893479 3.62966700486 0.0
0.510631148905 3.62429064243 0.0
0.754670889573 3.63369080225 0.0
0.489999986184 3.94463854908 0.0
0.732500655853 3.9452729887 0.0
0.193627936713 3.81528931126 0.0
1.40183871842 3.81461096917 0.0
0.928721275957 3.94715071018 0.0
0.0604617896557 3.86281267064 0.0
1.53953821034 3.86281267065 0.0
1.25036152032 3.94913766834 0.0
0.30096552553 3.81141484704 0.0
0.297089357677 3.66359682597 0.0
0.394212311705 3.61316974741 0.0
0.831051681923 3.94633984116 0.0
0.592085081305 3.94901138542 0.0
0.669405291514 3.95495209798 0.0
1.3611855791 3.94637621082 0.0
0.928496698914 3.82436133158 0.0
0.444093171593 3.8271987226 0.0
0.683378885111 3.8234871366 0.0
0.372430737197 3.95235208784 0.0
1.19348789949 3.87019408468 0.0
1.15124363553 3.95467023547 0.0
0.229287653728 3.96038323295 0.0
0.646635519079 3.61231195482 0.0
0.986819459779 3.84973028271 0.0
1.11214815433 3.84770266014 0.0
1.50610225987 3.6604664246 0.0
0.0938977401332 3.6604664246 0.0
0.531976760298 3.96138656711 0.0
0.451361041931 3.96112773652 0.0
0.771976835888 3.96138886125 0.0
1.53311213884 3.79435404356 0.0
0.066887861162 3.79435404356 0.0
0.970836553066 3.9620233382 0.0
0.311702426505 3.96111572975 0.0
1.31698094247 3.6658628839 0.0
1.11177843379 3.95948388532 0.0
1.15003411964 3.72957279566 0.0
0.890058924798 3.96133576813 0.0
0.169108880648 3.96040269401 0.0
1.42850737314 3.96465656678 0.0
0.0426347993992 3.9610175717 0.0
1.5573652006 3.9610175717 0.0
1.28993057938 3.85776473604 0.0
1.34652710411 3.82072629166 0.0
0.897316840472 3.87585124602 0.0
0.814484972147 3.79171515708 0.0
0.573290986674 3.7879873938 0.0
1.02164717476 3.69631051635 0.0
0.41798215839 3.87594988344 0.0
1.18469655214 3.6045863568 0.0
0.657426542805 3.87734841349 0.0
0.0893439701605 3.9657484063 0.0
1.51065602984 3.9657484063 0.0
0.850202761783 3.61862953305 0.0
0.185775988195 3.86980628439 0.0
1.41422401181 3.86980628439 0.0
0.305957202498 3.87340573583 0.0
0.629999992124 3.96272981278 0.0
0.686026569054 3.68766751472 0.0
1.03220081924 3.96436031967 0.0
0.445441337222 3.69456289967 0.0
1.33308537187 3.96770341358 0.0
1.0249206042 3.60512275769 0.0
0.128645746764 3.81165411571 0.0
1.47135425324 3.81165411571 0.0
1.29077706219 3.96625078806 0.0
1.21302440104 3.96491551313 0.0
0.373320303365 3.89968789902 0.0
0.409457647309 3.96502881891 0.0
1.39076199588 3.96614348387 0.0
1.2156032112 3.76624353786 0.0
0.383301616321 3.78976397621 0.0
0.593246012246 3.8948346816 0.0
0.833004203108 3.89475034107 0.0
0.187583903859 3.70688411961 0.0
1.41241609614 3.70688411961 0.0
1.08573330585 3.89673930733 0.0
1.04303343403 3.81530385578 0.0
0.103644791029 3.90516202075 0.0
1.49635520897 3.90516202075 0.0
1.23586605501 3.85112068621 0.0
0.921814270996 3.70213058021 0.0
0.532219762185 3.7029333087 0.0
1.28217045716 3.7375098981 0.0
0.779621693208 3.70806977531 0.0
0.998890529268 3.88397615296 0.0
0.659406618131 3.76469373474 0.0
0.230043799244 3.91599372373 0.0
1.53690667654 3.72637971331 0.0
0.0630933234627 3.72637971331 0.0
0.153148105836 3.90639761309 0.0
1.4478092366 3.90500627713 0.0
0.512139854501 3.90538519137 0.0
0.750930702019 3.90340708 0.0
0.0409150717909 3.90046251393 0.0
1.55908492821 3.90046251393 0.0
0.702096631597 3.96656725638 0.0
0.246204062466 3.82734823738 0.0
0.872012730916 3.80079945556 0.0
0.313419524246 3.75328100976 0.0
1.26305184675 3.57725747237 0.0
1.04341944162 3.90846795586 0.0
0.697725469476 3.93030230037 0.0
0.27003033309 3.96477332623 0.0
0.632456188669 3.80120134001 0.0
0.55988813035 3.96676596088 0.0
0.798125231733 3.9668778541 0.0
0.861599835739 3.96514225679 0.0
0.130196681328 3.96566148827 0.0
1.46980331867 3.96566148827 0.0
0.337465698618 3.96873835045 0.0
1.10690030388 3.57445060302 0.0
1.07038768144 3.96631210642 0.0
0.201908835349 3.96783542832 0.0
1.17640357301 3.96795841043 0.0
0.482502283815 3.8454083814 0.0
1.37723451734 3.90442225885 0.0
0.722497886517 3.84543272537 0.0
0.254749007352 3.57960328731 0.0
0.449206209982 3.91785378051 0.0
0.907803563184 3.91575967116 0.0
0.997592319531 3.96832081731 0.0
1.3597087328 3.59165409162 0.0
0.797785363131 3.87112617582 0.0
0.557788209884 3.87112741711 0.0
0.133223775006 3.57024633267 0.0
1.46673023696 3.57019175074 0.0
0.296361477075 3.90524448543 0.0
1.29555045611 3.90092076583 0.0
1.11951450862 3.79592056714 0.0
0.341558640376 3.57546927501 0.0
0.974255514016 3.92370320024 0.0
0.664786082443 3.91707165091 0.0
1.1442561544 3.86460464827 0.0
0.430695849932 3.74774845865 0.0
1.22439218721 3.92431164104 0.0
0.917330800791 3.76752811157 0.0
0.0995806821614 3.83759752714 0.0
1.50041931784 3.83759752714 0.0
0.586492545959 3.6571718064 0.0
1.16809690663 3.90376349956 0.0
0.490525946651 3.9687439861 0.0
0.170108846494 3.77025381333 0.0
0.726723612771 3.96611364881 0.0
1.42998397347 3.77014833166 0.0
1.55978981314 3.82099569701 0.0
0.0402101868575 3.82099569701 0.0
1.10043652243 3.92805072974 0.0
1.34111814411 3.91924529479 0.0
1.27430066613 3.93505265881 0.0
0.56431092584 3.57086686051 0.0
0.930516510487 3.96969091611 0.0
1.17713743504 3.67180033503 0.0
0.801256410508 3.5635758738 0.0
1.37979186382 3.84566323689 0.0
1.02277822921 3.7577258162 0.0
0.252009847995 3.68167957306 0.0
0.0497138210057 3.58866012032 0.0
1.55028617899 3.58866012032 0.0
0.466046622144 3.57331739513 0.0
0.343019074867 3.81481221655 0.0
0.0645235269233 3.96909610548 0.0
1.53547647308 3.96909610548 0.0
0.0310141903995 3.92955737583 0.0
[...]
POINT_DATA 856
VECTORS Displacement float
0.0 0.0 0
0.0 0.0 0
0.00163324096826 0.000789969865454 0
-0.00158212154351 0.000805344531639 0
0.0 0.0 0
0.0 0.0 0
0.0 0.0 0
0.0 0.0 0
0.0 0.0 0
0.0 0.0 0
0.0 0.0 0
0.0 0.0 0
0.0 0.0 0
0.0 0.0 0
0.0 0.0 0
0.0 0.0 0
0.0 0.0 0
0.0 0.0 0
0.0 0.0 0
0.0 0.0 0
0.0 0.0 0
0.0 0.0 0
0.0 0.0 0
0.0 0.0 0
0.0 0.0 0
0.0 0.0 0
0.00215939000256 -0.00134652123476 0
0.0036627739024 -0.0015186836342 0
0.00461172175629 -0.0012469869672 0
0.00495011574524 -0.000787023937712 0
0.00490923815086 -0.000336931142853 0
0.00461437578946 6.50924785535e-05 0
0.00415278956746 0.000364412900526 0
0.00366468407085 0.0005752841278 0
0.00316237662358 0.000706041645787 0
0.00269812715374 0.00076348070597 0
0.00229069852877 0.000787060343237 0
0.0019395275558 0.000791116510244 0
0.00163439729762 0.000489030747264 0
0.00163371323203 0.000201200169736 0
0.00162101876037 -7.20110127744e-05 0
0.00158942342416 -0.00033263603645 0
0.00153351393519 -0.000587167910995 0
0.0014495880339 -0.000849246717531 0
0.00133221332215 -0.00111556741047 0
0.00118438968333 -0.00141222144477 0
0.000997083040312 -0.00173457480868 0
0.000784300185516 -0.00210633064232 0
0.000528914946639 -0.00251911858636 0
0.000243038568828 -0.00300603464729 0
-8.96068693921e-05 -0.00356398811122 0
-0.000451371174686 -0.00421653862227 0
-0.000829938649203 -0.00496517923265 0
-0.001266943755 -0.00582932094181 0
-0.00171246999981 -0.00681892139927 0
-0.00216965008276 -0.00796714763296 0
-0.00266687156726 -0.00928813788362 0
-0.00321741852557 -0.0108019234855 0
-0.00374473522861 -0.0125562111354 0
-0.00433039868049 -0.0146005875925 0
-0.0048408740428 -0.016973208658 0
-0.00530514868133 -0.0197537013102 0
-0.00576064111817 -0.0230865279402 0
-0.00597143507607 -0.0270896467509 0
-0.00571658450547 -0.0326297742037 0
-0.00504521187749 -0.0386028312348 0
-0.00421287200517 -0.0440030485364 0
-0.00346701756656 -0.0489342517376 0
-0.00271401779015 -0.0533732054897 0
-0.00207762553364 -0.0573593328935 0
-0.00156280010715 -0.06089160129 0
-0.0010831169662 -0.0639447509339 0
-0.000720758795522 -0.0665399812045 0
-0.000419612123883 -0.068669704281 0
-0.000205636175134 -0.070331816332 0
-2.76164206556e-05 -0.0715245312375 0
8.9275244582e-05 -0.0722416848493 0
0.000151932165934 -0.0724808190808 0
0.000137574414707 -0.0722467362651 0
0.000209400480849 -0.0715322989762 0
0.000338824982286 -0.0703449532299 0
0.000555882379165 -0.0686873955393 0
0.000829057492058 -0.0665548945629 0
0.00119207268813 -0.0639629263994 0
0.00165557307053 -0.0609016835903 0
0.00220033510286 -0.0573840368425 0
0.00280085118609 -0.0533951655443 0
0.00356119539828 -0.0489621287687 0
0.00426003879775 -0.0440223418869 0
0.00511683166926 -0.0386306111401 0
0.00583026234578 -0.0326705217318 0
0.00608644612207 -0.027078506466 0
0.00586756916612 -0.0230424932147 0
0.0053630622995 -0.0196900232401 0
0.004870975553 -0.0169462978385 0
0.00431733639519 -0.0145870873407 0
0.00380835715625 -0.0125620893338 0
0.00326637479509 -0.0108003759964 0
0.00271390297542 -0.00928516507972 0
0.00221913217205 -0.00796348814483 0
0.00174337563835 -0.00682553354852 0
0.00129205423171 -0.0058266061577 0
0.000866361515456 -0.00496704787255 0
0.000489204671015 -0.00421504599995 0
0.000127734093601 -0.00357032171553 0
-0.00018706801343 -0.00300676890545 0
-0.000477704317611 -0.00252095077337 0
-0.000735825508042 -0.0021053684546 0
-0.000947210876506 -0.00173373082135 0
-0.00113330614177 -0.00141085361251 0
-0.00128078345692 -0.00111129556479 0
-0.00139865735449 -0.000842986040136 0
-0.00148239882313 -0.000579666832449 0
-0.00153824471522 -0.000323494026978 0
-0.0015698456076 -6.12560950202e-05 0
-0.0015825675428 0.000213525140518 0
-0.00158327323095 0.000502883604207 0
-0.00188995396101 0.000806486365203 0
-0.00224281564571 0.000802404672966 0
-0.00265203394472 0.000778800364626 0
-0.00311814583867 0.000721394122129 0
-0.00362250024117 0.000590868221582 0
-0.00411310718058 0.000380418982229 0
-0.00457764962932 8.16764610306e-05 0
-0.00487678281439 -0.000319599264489 0
-0.00492347826224 -0.000769737256539 0
-0.00459184930062 -0.00123149902726 0
-0.00364838886201 -0.00150674506091 0
-0.00214938981037 -0.00133841100488 0
-0.00620724256251 -0.00275494588019 0
0.00624600019743 -0.00272606470955 0
-0.00859974874821 -0.0144715633018 0
-0.0032331070087 -0.0309142580312 0
0.00663079309323 -0.0262961333225 0
0.00761366497647 -0.0117785883671 0
-0.00389667603503 -0.000918165917812 0
0.00393662611581 -0.000925524636401 0
-0.00590194072177 -0.00800005246008 0
-0.00705228631314 -0.0327778732406 0
0.00192770935252 -0.0452049336275 0
0.00728129614366 -0.0273227619332 0
-0.0039635063417 -0.00302276959018 0
0.00400864217472 -0.0030417810687 0
-0.00543378447509 -0.0172605173692 0
-0.00319815377221 -0.0502028887152 0
0.0047841362163 -0.0446589120697 0
0.00371800365644 -0.00702660829541 0
0.00438359829378 -0.0179186418324 0
-0.00477435247792 -0.0307940666205 0
-0.00026310173899 -0.0579557655955 0
-0.00270550210153 -0.000205810211152 0
0.00275113498973 -0.000215755319826 0
0.00534325214291 -0.000969686057407 0
-0.00531181325496 -0.000964653599283 0
-0.00252662750758 -0.00600607698133 0
0.00740177742746 -0.0102739941744 0
-0.00259633343009 -0.00175061051328 0
0.00260026007056 -0.00173200057256 0
-0.00389526109903 -0.0455797045024 0
0.00192397329494 -0.0566384590831 0
0.00232659770843 -0.0257926867384 0
-0.00698632829757 -0.020619579996 0
-0.00232421950687 -0.0114437780902 0
-0.00760043913913 -0.00634986669688 0
0.0039504025236 -0.0395978863855 0
0.00727438952839 -0.00554665525271 0
0.00194392606198 -0.011486629451 0
0.00201878914934 -0.00430696854927 0
-0.00239529277451 -0.000899282556978 0
0.00244125355851 -0.000903138221067 0
0.00860316053795 -0.0174040029079 0
0.00297466216173 -0.0281949827885 0
-0.00191078678696 -0.0036498058125 0
0.00663793241945 -0.00571231766075 0
-0.00125841379504 -0.0441193267339 0
-0.00793431614307 -0.0229605659012 0
-0.00456586720903 -0.00119426794851 0
0.00453381175446 -0.00118521305985 0
0.00414349437389 -0.0126591115173 0
-0.00615236745938 -0.00772325977197 0
-0.00147172917118 -0.0148379766175 0
-0.00185984318138 -0.0210170514009 0
-0.00122949229899 -0.0603536924648 0
-0.00506919073484 -0.00178123538283 0
0.00515735176149 -0.00186323774053 0
0.00216240043345 -0.0546845052086 0
-0.00391924224822 -0.000208861133252 0
0.0039607735442 -0.000219683197255 0
0.00105732927845 -0.00710305076305 0
-0.00605624668904 -0.00450368931461 0
-0.00613437876944 -0.00302050823893 0
-0.00568292074358 -0.00410729062862 0
0.000676469582235 -0.0623402574478 0
-0.00247929328914 -0.0418239135942 0
-0.0016398158404 -0.0556168510997 0
0.00184797353381 -0.00279773348783 0
0.00549733174524 -0.036855322732 0
-0.0075741793938 -0.0132805089678 0
-0.0049839691504 -0.0376747628146 0
-0.000695295459478 -0.00852130338304 0
0.00563891400658 -0.010791645018 0
0.00045852993148 -0.0153945254199 0
-0.00143802951026 -0.00259310926056 0
-0.00402564123984 -0.0105730434405 0
0.00688538260542 -0.0342662687855 0
0.00755592950267 -0.0183554520462 0
0.00457748998655 -0.000768611350329 0
-0.00456136844134 -0.000760208149099 0
-0.00072260266125 -0.0294163158756 0
0.000255523188287 -0.015673740551 0
-0.000316555975004 -0.0651136068036 0
0.00490468858207 -0.000495867516891 0
-0.00486833213 -0.000484969009199 0
0.00137941691494 -0.0504032673481 0
-0.000672051388859 -0.0052498982126 0
0.00604474770931 -0.0027689574417 0
0.000274710419571 -0.0208861443779 0
0.00838328285236 -0.0105263608967 0
0.00114986655124 -0.0612869514636 0
-0.00183621465061 -0.0014572082839 0
0.00177679128915 -0.00150322880684 0
-0.00217973330643 0.000175412664853 0
0.00222785838228 0.000163268956856 0
0.00501058971347 -0.00498780249266 0
0.00545132061989 -0.00302930365507 0
0.00374085961505 -0.046867126204 0
0.000701238998641 -0.0369619742159 0
-0.00814544418222 -0.0237974292957 0
0.00727896792499 -0.0160898917502 0
-0.00547958141504 -0.0117644452263 0
0.00541893178823 -0.00422599619507 0
-0.00508956656862 -0.0428339201133 0
-0.00203798208016 -0.000418720584735 0
0.00208654701804 -0.000427115100124 0
0.00152310265173 -0.0128847396103 0
-0.00397856881439 -0.00165485978486 0
0.00401591877277 -0.00165195365948 0
-0.00440745963505 -0.00485678748634 0
-0.00122096513106 -0.0506284897843 0
-0.00433320703877 -0.0200439477229 0
0.000873911913038 -0.0379893996458 0
-0.00794608744845 -0.00886258053708 0
0.000902648904162 -0.00362854122279 0
0.00498804383507 -0.00819147248211 0
-0.00483575323686 -0.000944894785286 0
0.00487806236682 -0.00095300837202 0
0.000510858281624 -0.0051662393083 0
-0.000239396935238 -0.00958023239727 0
-0.00380265028985 -0.00847430319056 0
0.000481556517241 -0.0113917288278 0
0.00148071784878 -0.00217507148645 0
0.00777702129589 -0.00782587206597 0
-0.00747462137246 -0.0081791373463 0
-0.00585944128944 -0.036404936865 0
0.00121634056857 -0.0533682689632 0
-0.00558536146705 -0.00150546689646 0
0.00560181079814 -0.00149606848687 0
0.0058670715677 -0.0237538201927 0
0.00819031979801 -0.0244555620571 0
-0.003167056343 -0.000588087363944 0
0.00321055169756 -0.000595888834814 0
0.00580892247297 -0.00769301318599 0
0.00475955303379 -0.0215437849665 0
-0.00790484429687 -0.0139816725348 0
0.00703897037328 -0.00454077565031 0
-0.000876760042091 -0.0246982877174 0
0.00624179511004 -0.0364432287065 0
-0.00590401304059 -0.0282208245263 0
-0.00278770865237 -0.00254157260061 0
0.00512297336713 -0.000706336697439 0
-0.00509608330091 -0.000695253816188 0
-0.00311057879944 -0.00118473164938 0
0.00318972601417 -0.00117760969456 0
-0.00529023490921 -0.0237389658635 0
-0.00157850489104 -0.0542521311088 0
-0.00324561979992 0.000111668006352 0
0.00328949684011 9.94220952382e-05 0
-0.000844970376279 -0.0613557427958 0
-0.00521719554931 -0.00287452153003 0
0.00329008967876 -0.0368972673205 0
-0.00691721127591 -0.00457242625614 0
0.00396732778691 -0.00207514071692 0
0.00546580695499 -0.0314847188665 0
-0.00238189766601 -0.0550424363763 0
-0.000936372913786 -0.00372013165982 0
-0.00682766907517 -0.0306144563725 0
-0.000413740327617 -0.0362925265351 0
6.3810934597e-05 -0.0664932406177 0
0.000775831281046 -0.0641882311474 0
-0.00191342054024 -0.000924798923543 0
0.00196234634741 -0.000929870238741 0
-1.01713323458e-05 -0.00650417275554 0
0.00422431580526 -0.00435709572948 0
9.09099775855e-05 -0.0290112014845 0
-0.00144684419014 -0.00203808738163 0
-0.000791864593899 -0.0127041494407 0
-0.00753669147578 -0.0176211940369 0
0.00318125606719 -0.00236897952694 0
-0.00326842228314 -0.0434213812855 0
-0.00347856627294 -0.00126881427732 0
-0.00351506472981 -0.0152636699583 0
0.00309973251124 -0.0521750793979 0
0.000662616040928 -0.0460320409652 0
0.00380446035082 -0.0013105748294 0
-3.80970274355e-05 -0.0497754122967 0
-0.00701818642042 -0.0288407948915 0
-0.00248811271566 -0.000504652400345 0
0.00250039461325 -0.000507587049741 0
-0.00317548355798 -0.00453108926511 0
0.00340662991594 -0.00483048365656 0
0.00845119970616 -0.0155078322261 0
-0.00390949101806 -0.00209364597963 0
0.00405680662822 -0.0448568197969 0
-0.00358768065635 -0.0493750117802 0
0.00658437691771 -0.0152859336926 0
-0.00825158010778 -0.0100241355165 0
0.00248462679247 -0.00867406752715 0
0.0051057283241 -0.0299981971619 0
-0.00438855736857 -0.000639756470118 0
0.00442732269859 -0.000647654329653 0
-0.00620906861045 -0.0130030871897 0
0.00421562889756 -0.0133081224708 0
0.000940805747799 -0.0212471934145 0
-0.00544074429078 -0.00141607467987 0
-0.000709663902941 -0.0635315880977 0
0.00547633648534 -0.00142095903793 0
0.00454196936994 -0.000194885434721 0
-0.00450396965074 -0.000182126518652 0
0.00359256891 -0.0223356182202 0
0.00268994114466 -0.00329328517415 0
0.00189852903138 -0.00581701118913 0
-0.00377012826423 -0.00527526428543 0
0.000852941773521 -0.0578726979034 0
0.00745133288608 -0.00701476949069 0
8.99374564172e-06 -0.00659190175378 0
0.00469279709392 -0.00228274978829 0
0.00802611007275 -0.0214354379562 0
-0.00590908434209 -0.00234292260145 0
-0.00280447041357 -0.000720245023789 0
0.00281585773175 -0.000726933444936 0
-0.00430132325894 -0.00377099049215 0
-0.00651359516769 -0.00629191613573 0
-0.00202678473425 -0.000111344970064 0
0.00207555011184 -0.000121781832357 0
-0.00272179398592 0.00030199158278 0
0.00276761953893 0.000288974260537 0
-0.00195864863962 -0.00715510226721 0
-0.0043692229374 -0.00612509507063 0
-0.00682409162136 -0.00473878706534 0
-0.00858975105245 -0.0189499223768 0
-0.00158451616566 -0.0355505497678 0
0.00190326703434 -0.00738279455518 0
0.00641192402207 -0.00392140646615 0
-0.00447759497255 -0.00129048967374 0
-0.000493193101847 -0.00718736226352 0
0.00451297018378 -0.00124841692289 0
0.0072994682201 -0.00819160875842 0
0.00581321060076 -0.0390840103136 0
-0.00216330768107 -0.0183511968559 0
0.00032932918005 -0.0444005068629 0
-0.0078236050383 -0.027389459707 0
0.000990510106881 -0.00301123782873 0
-0.00257843816505 -0.000539932094468 0
0.00262424926987 -0.00054756894265 0
-0.000196773417798 -0.0473577997225 0
-0.000491152414705 -0.0560444358674 0
0.00810890565384 -0.0222356413123 0
-0.00317991146432 -0.000247857261391 0
0.0032238480364 -0.00025753691607 0
-0.00520213629561 -0.000974925564505 0
0.00522404454368 -0.000980375478915 0
0.000232539832825 -0.0688847737608 0
0.00240403534164 -0.0513631467357 0
0.000876983497478 -0.009599065379 0
-0.00200188872582 0.000399587977972 0
0.00205089837594 0.000386252994605 0
0.00675709661377 -0.0306171274225 0
-0.00549342550966 -0.0407375739378 0
0.000224154313122 -0.00445460049098 0
-0.00416981949037 -0.00226226104657 0
0.00832621572657 -0.0130436488489 0
-0.00249341375917 -0.00122132287791 0
0.00370656309882 -0.0106575484412 0
0.00259907258561 -0.0012566817661 0
0.00176594588241 -0.0133269097471 0
0.0039117459431 -0.0415110512812 0
0.00203263607553 -0.0180894207758 0
-0.00608361168505 -0.0362752937176 0
0.00303371645227 -0.0060177138486 0
-0.00675455407361 -0.0104656667767 0
-0.00327849199272 -0.00202230355504 0
0.00601176205301 -0.00222339386686 0
0.00132684125377 -0.00184738871452 0
-0.00705255682832 -0.0219124857881 0
-0.00198990549586 -0.0484552570291 0
-0.00836930181881 -0.015817688381 0
-0.000653530465348 -0.00320606909071 0
-0.00443724567291 -0.036198963043 0
0.000471151243601 -0.0588287113314 0
-0.00358194872648 -0.0368275656809 0
-0.00210746067082 -0.00740474666841 0
-0.000660061793557 -0.0594389605335 0
-0.00432479087829 -0.0439334788962 0
-0.00372112996087 9.50940549203e-05 0
0.00376321961155 8.22668464294e-05 0
0.00359984484466 -0.0339576021311 0
0.00632201799216 -0.0201167810641 0
0.00268227636169 -0.000711820244681 0
-0.00534992572801 -0.0061693891305 0
-0.000157848190116 -0.00443253536351 0
-0.00564135972991 -0.00234603218097 0
-0.0029943108137 -0.00319188085553 0
-0.00824628851293 -0.0182497714007 0
-0.00653441765393 -0.0147822226181 0
-0.00480888870955 -0.00364731856202 0
-0.00252928833429 -0.000674885518917 0
0.00246457063625 -0.018257375285 0
0.00231815288684 -0.0248490076489 0
-0.000200104370836 -0.067366814578 0
0.00617134274509 -0.0190334334367 0
-0.00382871295052 -0.000523295694541 0
0.00387133351405 -0.000531254458207 0
0.00475320452997 -0.000806450963605 0
-0.00473337423219 -0.0007954930497 0
0.00573159946517 -0.00237182937113 0
-0.000199575918959 -0.0306454815989 0
-3.98165326337e-05 -0.056536297767 0
-0.00156944940931 -0.00119801150633 0
0.00160754562243 -0.00121526919744 0
-0.00703860158115 -0.00455530715079 0
0.00063796614367 -0.0079037692928 0
0.000247458817691 -0.0621313958861 0
0.00207996369424 -0.00224112848643 0
-0.00328089067675 -0.025096428064 0
-0.00120028534858 -0.0586959182949 0
-0.00203333036556 -0.0248615647687 0
-0.00174301025753 -0.000688463630855 0
0.00179256759381 -0.000695053211006 0
0.00288045319131 -0.0150471773559 0
0.00596178831233 -0.00432219754355 0
4.24547396692e-05 -0.0419037943621 0
0.00589974618385 -0.013671935831 0
0.00605140961015 -0.0035170428363 0
0.00471040803575 -0.00871018798942 0
-0.00150395960001 -0.03433690044 0
-0.00647986120897 -0.00654563356769 0
0.00364186932705 -0.00366596428021 0
-0.00291252546565 -0.0328241766172 0
-0.00012840830582 -0.0622189203675 0
-0.00202466767858 -0.00210340332618 0
-0.00206238736948 -0.055479941504 0
-0.00212849803051 -0.00446001851652 0
0.00476060381264 -0.00371610985262 0
0.000930986370604 -0.0207428881455 0
0.00585155038931 -0.00189562226001 0
-0.00037125185365 -0.00604318772791 0
-0.00286444215746 -0.0242485710567 0
0.00720342477775 -0.0313356001013 0
-0.00819476645139 -0.0119633720121 0
-0.00371122536276 -0.0185514020722 0
-0.00110061057689 -0.0085932677218 0
0.00338019820675 -0.0018887435718 0
-0.00581844001367 -0.00189079902401 0
0.00288338331874 -0.0203292420172 0
-0.00201042469806 -0.0153400102586 0
-0.00306894211083 -0.0137387314698 0
0.00484486637116 -0.000301733687431 0
-0.00480949868635 -0.000287881752063 0
0.00361611625593 -0.0488462630785 0
0.00713438314198 -0.0227548982572 0
-0.000902019604318 -0.0129987725008 0
0.00830829998704 -0.0103337260795 0
-0.00502926241588 -0.00178099074359 0
-0.00100613390445 -0.00242314974568 0
-0.0030895447714 -0.00197569964337 0
0.00115419099333 -0.0609884851409 0
-0.00274830393672 -0.0458595021165 0
-0.00249992224951 -0.0511466137553 0
0.000232822724771 -0.00574068717151 0
-0.00386139066447 -0.0126293262092 0
-0.00214605072457 -0.000694469457156 0
-0.00132713614077 -0.00613053363602 0
0.00219403483188 -0.000700876734006 0
0.00489706501966 -0.00661038609799 0
0.00190736938718 -0.0336536816895 0
-4.17411343322e-05 -0.0682351837959 0
0.00310791428149 -0.0446056288736 0
-0.00603573559056 -0.00343929652842 0
-0.0058041673137 -0.0160998896506 0
0.0076684285897 -0.0283816404831 0
0.00675048801931 -0.0124371069747 0
0.00669806450356 -0.00956497689603 0
0.00140600102216 -0.0328154570007 0
0.00214038957154 -0.0565052095412 0
-0.00206566346314 -0.00950717352685 0
0.0019522033763 -0.00182034625743 0
-0.00734420857585 -0.00625155717466 0
0.000349733215686 -0.0658118042241 0
-0.0065730715125 -0.00331036660279 0
0.00318514908203 -0.00200801978902 0
-0.00208824090098 -0.00292878546059 0
-0.00203495662217 -0.00113050552747 0
0.00209916463135 -0.0012077142848 0
0.00342225586349 -0.0312712834112 0
-0.00182867188362 0.000108198165099 0
0.00187848721759 9.64638033815e-05 0
-0.000349645518171 -0.0506328090073 0
-0.00130935732032 -0.00180047503494 0
-0.00510394716633 -0.000777853340307 0
0.00513856707293 -0.000785755428992 0
0.00798171005981 -0.00782479933496 0
0.00116852455881 -0.0249725000901 0
0.00249236798953 -0.00704172954397 0
-0.00121675327818 -0.00437063168619 0
0.00188162191321 -0.0402353342991 0
-0.00180988179085 -0.00409842830475 0
0.00556273259231 -0.0357342768682 0
-0.00405369629895 -0.0474291129123 0
-0.00753796206672 -0.0292284481197 0
-0.0062010100473 -0.0268344081695 0
-0.000858453127513 -0.0532465127701 0
-0.00235782752592 0.000465301732056 0
0.00240518979733 0.000451570075561 0
-0.00835804190895 -0.0122492755707 0
0.00103731007385 -0.00855111653374 0
-0.0029366645063 -0.000873253278248 0
0.000614710479861 -0.0532546711181 0
0.00298502555584 -0.000879022638761 0
0.00117121594055 -0.00427268847432 0
0.00134566692009 -0.05709667913 0
-0.00751160709475 -0.00666256629412 0
-0.00731536640467 -0.0250463804844 0
0.00644470697442 -0.00476097556309 0
-0.00450486466137 -0.0410567778756 0
-0.00233839151006 -7.40943283441e-05 0
0.00238570955644 -8.48003536629e-05 0
0.00729537960685 -0.00590419834948 0
0.00452778843162 -0.000892933814408 0
-0.00452452737154 -0.000891084355078 0
0.00184402080487 -0.00340476444736 0
0.000997334902806 -0.0488631160729 0
-0.00698133407442 -0.0321826115715 0
0.00634635095776 -0.00652826286456 0
0.00674963134897 -0.0116089081248 0
-0.00501897074071 -0.000780782911463 0
0.00504138267363 -0.000789602727782 0
-0.00375948270791 -0.00382211059018 0
-0.002772572202 -0.00300205871601 0
0.000879791445091 -0.00264047861604 0
0.00685743579901 -0.00412581772456 0
-0.00077314951888 -0.0438051420782 0
-0.0037454604675 -0.00123609530164 0
-0.000499115348841 -0.00992226336718 0
0.00378249235045 -0.00123495913676 0