# vtk DataFile Version 2.0
Generated with Solid Solver
ASCII
DATASET UNSTRUCTURED_GRID
POINTS 856 float 
0.0 3.5 0.0
1.6 3.5 0.0
1.6 4.0 0.0
0.0 4.0 0.0
0.0695652173912 3.5 0.0
0.139130434782 3.5 0.0
0.208695652174 3.5 0.0
0.278260869565 3.5 0.0
0.347826086956 3.5 0.0
0.417391304347 3.5 0.0
0.486956521738 3.5 0.0
0.556521739129 3.5 0.0
0.62608695652 3.5 0.0
0.695652173911 3.5 0.0
0.765217391302 3.5 0.0
0.834782608694 3.5 0.0
0.904347826085 3.5 0.0
0.973913043477 3.5 0.0
1.04347826087 3.5 0.0
1.11304347826 3.5 0.0
1.18260869565 3.5 0.0
1.25217391304 3.5 0.0
1.32173913043 3.5 0.0
1.39130434783 3.5 0.0
1.46086956522 3.5 0.0
1.53043478261 3.5 0.0
1.6 3.56430812594 0.0
1.6 3.62270835268 0.0
1.6 3.6757434324 0.0
1.6 3.7239062376 0.0
1.6 3.76764438351 0.0
1.6 3.80736436404 0.0
1.6 3.84343531219 0.0
1.6 3.87619247117 0.0
1.6 3.90594026707 0.0
1.6 3.93295517284 0.0
1.6 3.95748825478 0.0
1.6 3.97976750982 0.0
1.58000000587 4.0 0.0
1.55999996633 4.0 0.0
1.54000002214 4.0 0.0
1.51999997198 4.0 0.0
1.50000000455 4.0 0.0
1.48000000216 4.0 0.0
1.45999997931 4.0 0.0
1.44000002484 4.0 0.0
1.41999997044 4.0 0.0
1.40000002096 4.0 0.0
1.37999999963 4.0 0.0
1.35999999626 4.0 0.0
1.34000002179 4.0 0.0
1.31999997343 4.0 0.0
1.3000000318 4.0 0.0
1.27999998783 4.0 0.0
1.26000000202 4.0 0.0
1.24000001295 4.0 0.0
1.21999998074 4.0 0.0
1.20000003685 4.0 0.0
1.17999998163 4.0 0.0
1.16000001473 4.0 0.0
1.14000000469 4.0 0.0
1.11999999139 4.0 0.0
1.10000003625 4.0 0.0
1.07999997877 4.0 0.0
1.06000002802 4.0 0.0
1.04000000338 4.0 0.0
1.02000000764 4.0 0.0
1.00000002986 4.0 0.0
0.979999980237 4.0 0.0
0.960000035522 4.0 0.0
0.939999990881 4.0 0.0
0.920000014619 4.0 0.0
0.900000017903 4.0 0.0
0.879999986222 4.0 0.0
0.860000037278 4.0 0.0
0.839999982352 4.0 0.0
0.820000022783 4.0 0.0
0.800000000002 4.0 0.0
0.779999977222 4.0 0.0
0.760000017652 4.0 0.0
0.739999962726 4.0 0.0
0.720000013782 4.0 0.0
0.699999982101 4.0 0.0
0.679999985385 4.0 0.0
0.660000009123 4.0 0.0
0.639999964482 4.0 0.0
0.620000019766 4.0 0.0
0.599999970141 4.0 0.0
0.57999999236 4.0 0.0
0.559999996622 4.0 0.0
0.539999971983 4.0 0.0
0.520000021235 4.0 0.0
0.499999963756 4.0 0.0
0.480000008612 4.0 0.0
0.459999995315 4.0 0.0
0.439999985272 4.0 0.0
0.420000018371 4.0 0.0
0.39999996315 4.0 0.0
0.380000019261 4.0 0.0
0.359999987052 4.0 0.0
0.339999997986 4.0 0.0
0.320000012172 4.0 0.0
0.299999968206 4.0 0.0
0.280000026575 4.0 0.0
0.259999978213 4.0 0.0
0.240000003742 4.0 0.0
0.220000000371 4.0 0.0
0.199999979041 4.0 0.0
0.180000029557 4.0 0.0
0.159999975162 4.0 0.0
0.140000020694 4.0 0.0
0.119999997846 4.0 0.0
0.0999999954514 4.0 0.0
0.0800000280232 4.0 0.0
0.0599999778571 4.0 0.0
0.0400000336732 4.0 0.0
0.0199999941324 4.0 0.0
0.0 3.97976750982 0.0
0.0 3.95748825478 0.0
0.0 3.93295517284 0.0
0.0 3.90594026707 0.0
0.0 3.87619247117 0.0
0.0 3.84343531219 0.0
0.0 3.80736436404 0.0
0.0 3.76764438351 0.0
0.0 3.7239062376 0.0
0.0 3.6757434324 0.0
0.0 3.62270835268 0.0
0.0 3.56430812594 0.0
0.249757905714 3.75212552678 0.0
1.35000000902 3.74954526597 0.0
0.488714190926 3.75947467509 0.0
0.727445026698 3.75983525744 0.0
0.962900270309 3.76055270856 0.0
1.17161197633 3.81755162829 0.0
0.130754031542 3.86878251069 0.0
1.46924596846 3.86878251069 0.0
0.369913852535 3.84868154079 0.0
0.603236233099 3.84763103091 0.0
0.843402107212 3.84736931152 0.0
1.05041705507 3.86611282467 0.0
0.250539323282 3.87785527135 0.0
1.34882231626 3.87787871523 0.0
0.468661896861 3.89189320321 0.0
0.704258117309 3.89639128976 0.0
0.94963922804 3.89654080835 0.0
1.25000000748 3.89875296068 0.0
1.12879020517 3.91059303421 0.0
0.548928478218 3.91905583534 0.0
0.7889268651 3.91906062813 0.0
0.0712526194949 3.93011432704 0.0
1.52874738051 3.93011432704 0.0
1.4740071133 3.74293106904 0.0
0.125992886699 3.74293106904 0.0
0.329956761073 3.92118145982 0.0
1.09412206522 3.66725831207 0.0
0.190000004299 3.92542384899 0.0
1.41098423528 3.92728100222 0.0
0.629999992124 3.92414139091 0.0
0.87000001175 3.92414140592 0.0
0.853391941071 3.71944243214 0.0
0.610032822379 3.72536074396 0.0
0.41090315692 3.92892991009 0.0
0.370435019193 3.7251305208 0.0
1.01000001875 3.93130199947 0.0
1.22823348571 3.68694249365 0.0
1.18894423177 3.93487447818 0.0
1.31063576122 3.93502724255 0.0
0.129927636183 3.94112156482 0.0
1.47007236382 3.94112156482 0.0
1.07646504896 3.76194504855 0.0
1.07000000339 3.94017719684 0.0
0.270000002394 3.93875928556 0.0
1.26759839792 3.80243333593 0.0
0.770332946246 3.83880063275 0.0
0.530342720064 3.83880306325 0.0
0.189898092614 3.63474333735 0.0
1.4101772205 3.6313147556 0.0
0.942883893479 3.62966700486 0.0
0.510631148905 3.62429064243 0.0
0.754670889573 3.63369080225 0.0
0.489999986184 3.94463854908 0.0
0.732500655853 3.9452729887 0.0
0.193627936713 3.81528931126 0.0
1.40183871842 3.81461096917 0.0
0.928721275957 3.94715071018 0.0
0.0604617896557 3.86281267064 0.0
1.53953821034 3.86281267065 0.0
1.25036152032 3.94913766834 0.0
0.30096552553 3.81141484704 0.0
0.297089357677 3.66359682597 0.0
0.394212311705 3.61316974741 0.0
0.831051681923 3.94633984116 0.0
0.592085081305 3.94901138542 0.0
0.669405291514 3.95495209798 0.0
1.3611855791 3.94637621082 0.0
0.928496698914 3.82436133158 0.0
0.444093171593 3.8271987226 0.0
0.683378885111 3.8234871366 0.0
0.372430737197 3.95235208784 0.0
1.19348789949 3.87019408468 0.0
1.15124363553 3.95467023547 0.0
0.229287653728 3.96038323295 0.0
0.646635519079 3.61231195482 0.0
0.986819459779 3.84973028271 0.0
1.11214815433 3.84770266014 0.0
1.50610225987 3.6604664246 0.0
0.0938977401332 3.6604664246 0.0
0.531976760298 3.96138656711 0.0
0.451361041931 3.96112773652 0.0
0.771976835888 3.96138886125 0.0
1.53311213884 3.79435404356 0.0
0.066887861162 3.79435404356 0.0
0.970836553066 3.9620233382 0.0
0.311702426505 3.96111572975 0.0
1.31698094247 3.6658628839 0.0
1.11177843379 3.95948388532 0.0
1.15003411964 3.72957279566 0.0
0.890058924798 3.96133576813 0.0
0.169108880648 3.96040269401 0.0
1.42850737314 3.96465656678 0.0
0.0426347993992 3.9610175717 0.0
1.5573652006 3.9610175717 0.0
1.28993057938 3.85776473604 0.0
1.34652710411 3.82072629166 0.0
0.897316840472 3.87585124602 0.0
0.814484972147 3.79171515708 0.0
0.573290986674 3.7879873938 0.0
1.02164717476 3.69631051635 0.0
0.41798215839 3.87594988344 0.0
1.18469655214 3.6045863568 0.0
0.657426542805 3.87734841349 0.0
0.0893439701605 3.9657484063 0.0
1.51065602984 3.9657484063 0.0
0.850202761783 3.61862953305 0.0
0.185775988195 3.86980628439 0.0
1.41422401181 3.86980628439 0.0
0.305957202498 3.87340573583 0.0
0.629999992124 3.96272981278 0.0
0.686026569054 3.68766751472 0.0
1.03220081924 3.96436031967 0.0
0.445441337222 3.69456289967 0.0
1.33308537187 3.96770341358 0.0
1.0249206042 3.60512275769 0.0
0.128645746764 3.81165411571 0.0
1.47135425324 3.81165411571 0.0
1.29077706219 3.96625078806 0.0
1.21302440104 3.96491551313 0.0
0.373320303365 3.89968789902 0.0
0.409457647309 3.96502881891 0.0
1.39076199588 3.96614348387 0.0
1.2156032112 3.76624353786 0.0
0.383301616321 3.78976397621 0.0
0.593246012246 3.8948346816 0.0
0.833004203108 3.89475034107 0.0
0.187583903859 3.70688411961 0.0
1.41241609614 3.70688411961 0.0
1.08573330585 3.89673930733 0.0
1.04303343403 3.81530385578 0.0
0.103644791029 3.90516202075 0.0
1.49635520897 3.90516202075 0.0
1.23586605501 3.85112068621 0.0
0.921814270996 3.70213058021 0.0
0.532219762185 3.7029333087 0.0
1.28217045716 3.7375098981 0.0
0.779621693208 3.70806977531 0.0
0.998890529268 3.88397615296 0.0
0.659406618131 3.76469373474 0.0
0.230043799244 3.91599372373 0.0
1.53690667654 3.72637971331 0.0
0.0630933234627 3.72637971331 0.0
0.153148105836 3.90639761309 0.0
1.4478092366 3.90500627713 0.0
0.512139854501 3.90538519137 0.0
0.750930702019 3.90340708 0.0
0.0409150717909 3.90046251393 0.0
1.55908492821 3.90046251393 0.0
0.702096631597 3.96656725638 0.0
0.246204062466 3.82734823738 0.0
0.872012730916 3.80079945556 0.0
0.313419524246 3.75328100976 0.0
1.26305184675 3.57725747237 0.0
1.04341944162 3.90846795586 0.0
0.697725469476 3.93030230037 0.0
0.27003033309 3.96477332623 0.0
0.632456188669 3.80120134001 0.0
0.55988813035 3.96676596088 0.0
0.798125231733 3.9668778541 0.0
0.861599835739 3.96514225679 0.0
0.130196681328 3.96566148827 0.0
1.46980331867 3.96566148827 0.0
0.337465698618 3.96873835045 0.0
1.10690030388 3.57445060302 0.0
1.07038768144 3.96631210642 0.0
0.201908835349 3.96783542832 0.0
1.17640357301 3.96795841043 0.0
0.482502283815 3.8454083814 0.0
1.37723451734 3.90442225885 0.0
0.722497886517 3.84543272537 0.0
0.254749007352 3.57960328731 0.0
0.449206209982 3.91785378051 0.0
0.907803563184 3.91575967116 0.0
0.997592319531 3.96832081731 0.0
1.3597087328 3.59165409162 0.0
0.797785363131 3.87112617582 0.0
0.557788209884 3.87112741711 0.0
0.133223775006 3.57024633267 0.0
1.46673023696 3.57019175074 0.0
0.296361477075 3.90524448543 0.0
1.29555045611 3.90092076583 0.0
1.11951450862 3.79592056714 0.0
0.341558640376 3.57546927501 0.0
0.974255514016 3.92370320024 0.0
0.664786082443 3.91707165091 0.0
1.1442561544 3.86460464827 0.0
0.430695849932 3.74774845865 0.0
1.22439218721 3.92431164104 0.0
0.917330800791 3.76752811157 0.0
0.0995806821614 3.83759752714 0.0
1.50041931784 3.83759752714 0.0
0.586492545959 3.6571718064 0.0
1.16809690663 3.90376349956 0.0
0.490525946651 3.9687439861 0.0
0.170108846494 3.77025381333 0.0
0.726723612771 3.96611364881 0.0
1.42998397347 3.77014833166 0.0
1.55978981314 3.82099569701 0.0
0.0402101868575 3.82099569701 0.0
1.10043652243 3.92805072974 0.0
1.34111814411 3.91924529479 0.0
1.27430066613 3.93505265881 0.0
0.56431092584 3.57086686051 0.0
0.930516510487 3.96969091611 0.0
1.17713743504 3.67180033503 0.0
0.801256410508 3.5635758738 0.0
1.37979186382 3.84566323689 0.0
1.02277822921 3.7577258162 0.0
0.252009847995 3.68167957306 0.0
0.0497138210057 3.58866012032 0.0
1.55028617899 3.58866012032 0.0
0.466046622144 3.57331739513 0.0
0.343019074867 3.81481221655 0.0
0.0645235269233 3.96909610548 0.0
1.53547647308 3.96909610548 0.0
0.0310141903995 3.92955737583 0.0
[...]
POINT_DATA 856
VECTORS Displacement float
0.0 0.0 0
0.0 0.0 0
0.00163324266056 0.000789969702629 0
-0.0015821232296 0.000805344368796 0
0.0 0.0 0
0.0 0.0 0
0.0 0.0 0
0.0 0.0 0
0.0 0.0 0
0.0 0.0 0
0.0 0.0 0
0.0 0.0 0
0.0 0.0 0
0.0 0.0 0
0.0 0.0 0
0.0 0.0 0
0.0 0.0 0
0.0 0.0 0
0.0 0.0 0
0.0 0.0 0
0.0 0.0 0
0.0 0.0 0
0.0 0.0 0
0.0 0.0 0
0.0 0.0 0
0.0 0.0 0
0.00215939114771 -0.0013465220442 0
0.00366277585834 -0.00151868464034 0
0.00461172426246 -0.00124698793296 0
0.00495011851221 -0.00078702475241 0
0.00490924099174 -0.000336931788858 0
0.00461437857639 6.50919951122e-05 0
0.00415279220873 0.000364412542742 0
0.00366468654325 0.000575283862584 0
0.00316237890862 0.000706041440589 0
0.00269812926055 0.000763480528687 0
0.0022907004768 0.000787060178057 0
0.00193952936688 0.000791116347818 0
0.00163439899034 0.000489030468101 0
0.00163371492372 0.000201199780177 0
0.00162102044516 -7.20115071093e-05 0
0.00158942509303 -0.000332636631504 0
0.00153351557728 -0.000587168606553 0
0.0014495896374 -0.000849247519474 0
0.00133221487256 -0.00111556832443 0
0.00118439116911 -0.0014122224872 0
0.000997084445274 -0.00173457599521 0
0.000784301501132 -0.00210633199798 0
0.000528916156375 -0.00251912013402 0
0.000243039662962 -0.00300603642318 0
-8.96059078217e-05 -0.00356399015153 0
-0.000451370353483 -0.0042165409739 0
-0.000829937969705 -0.0049651819413 0
-0.00126694323798 -0.00582932406577 0
-0.00171246964089 -0.00681892499938 0
-0.00216964987777 -0.00796715178439 0
-0.00266687152348 -0.0092881426692 0
-0.00321741865538 -0.0108019290039 0
-0.00374473550433 -0.0125562174991 0
-0.0043303991093 -0.0146005949515 0
-0.00484087456097 -0.0169732171777 0
-0.00530514922774 -0.019753711195 0
-0.00576064161888 -0.0230865395333 0
-0.00597143528418 -0.0270896604585 0
-0.005716583697 -0.0326297913331 0
-0.00504521046525 -0.0386028498368 0
-0.00421287016418 -0.044003068452 0
-0.00346701545241 -0.0489342729944 0
-0.0027140154872 -0.0533732281042 0
-0.0020776231415 -0.0573593568281 0
-0.00156279771945 -0.0608916265153 0
-0.00108311465401 -0.0639447774155 0
-0.000720756656843 -0.0665400088145 0
-0.000419610248332 -0.0686697328811 0
-0.000205634636239 -0.0703318457304 0
-2.76153086953e-05 -0.0715245611657 0
8.92758586507e-05 -0.0722417150615 0
0.000151932202921 -0.0724808492651 0
0.000137573858082 -0.0722467664948 0
0.000209399406578 -0.0715323289017 0
0.000338823483785 -0.0703449825941 0
0.000555880530516 -0.0686874241204 0
0.000829055356029 -0.066554922227 0
0.00119207037905 -0.063962952941 0
0.00165557066124 -0.0609017089492 0
0.00220033271558 -0.0573840608559 0
0.0028008488905 -0.0533951881933 0
0.00356119330087 -0.0489621500493 0
0.00426003698658 -0.0440223618347 0
0.00511683025825 -0.0386306298062 0
0.00583026151965 -0.0326705389638 0
0.00608644633872 -0.0270785202296 0
0.0058675696869 -0.0230425048493 0
0.00536306285407 -0.0196900331517 0
0.00487097606996 -0.0169463063885 0
0.00431733680094 -0.014587094721 0
0.00380835744525 -0.0125620957314 0
0.00326637493307 -0.0108003815366 0
0.00271390293852 -0.00928516988616 0
0.00221913197387 -0.00796349231376 0
0.0017433752789 -0.00682553716743 0
0.00129205370991 -0.0058266092955 0
0.000866360837339 -0.00496705059604 0
0.000489203851583 -0.00421504836288 0
0.000127733133307 -0.00357032376903 0
-0.000187069097907 -0.00300677069199 0
-0.000477705520416 -0.00252095233059 0
-0.000735826817655 -0.00210536981856 0
-0.000947212274985 -0.00173373201569 0
-0.00113330762071 -0.00141085466197 0
-0.00128078500053 -0.00111129648437 0
-0.00139865895151 -0.000842986846687 0
-0.00148240045879 -0.000579667531884 0
-0.00153824637774 -0.000323494625068 0
-0.00156984728611 -6.12565916052e-05 0
-0.00158256922826 0.000213524749459 0
-0.00158327491745 0.000502883324278 0
-0.00188995576665 0.000806486202758 0
-0.00224281758915 0.000802404507735 0
-0.00265203604785 0.000778800187231 0
-0.00311814812096 0.000721393916738 0
-0.00362250271176 0.000590867956115 0
-0.00411310982101 0.000380418624165 0
-0.00457765241639 8.1675977329e-05 0
-0.00487678565649 -0.000319599910655 0
-0.00492348103164 -0.000769738071496 0
-0.00459185181011 -0.00123149999381 0
-0.00364839082062 -0.00150674606848 0
-0.00214939095626 -0.00133841181539 0
-0.00620724590498 -0.00275494747168 0
0.0062460035321 -0.00272606627506 0
-0.00859975284761 -0.0144715700579 0
-0.00323310839834 -0.0309142707182 0
0.0066307959949 -0.026296144448 0
0.00761366904676 -0.0117785942012 0
-0.00389667862167 -0.000918166744325 0
0.0039366287031 -0.000925525459256 0
-0.00590194425223 -0.00800005665697 0
-0.0070522898021 -0.0327778875259 0
0.0019277102992 -0.0452049520517 0
0.00728130003625 -0.0273227744654 0
-0.00396350902768 -0.00302277140772 0
0.00400864486317 -0.00304178288457 0
-0.00543378806333 -0.0172605259814 0
-0.00319815573894 -0.0502029093965 0
0.00478413902023 -0.0446589308498 0
0.00371800637735 -0.00702661205013 0
0.00438360156697 -0.0179186507888 0
-0.00477435584355 -0.0307940811297 0
-0.000263101974808 -0.0579557892865 0
-0.0027055042274 -0.000205810761314 0
0.00275113711901 -0.000215755867367 0
0.00534325509391 -0.00096968681889 0
-0.00531181620695 -0.000964654364688 0
-0.0025266297406 -0.00600608025705 0
0.00740178071295 -0.010273998803 0
-0.00259633553648 -0.00175061172418 0
0.00260026216279 -0.00173200176587 0
-0.00389526396557 -0.0455797239424 0
0.00192397481139 -0.0566384823287 0
0.00232659867886 -0.0257926972903 0
-0.00698633133426 -0.020619588844 0
-0.00232422187163 -0.0114437840213 0
-0.00760044291332 -0.00634986988885 0
0.00395040556255 -0.0395979039875 0
0.00727439302753 -0.00554665799406 0
0.00194392825804 -0.0114866353736 0
0.00201879108592 -0.00430697097736 0
-0.00239529478141 -0.000899283385218 0
0.00244125556908 -0.000903139043772 0
0.00860316453954 -0.0174040108127 0
0.00297466512918 -0.0281949965692 0
-0.00191078867239 -0.00364980793206 0
0.00663793607166 -0.00571232069518 0
-0.00125841441424 -0.0441193447026 0
-0.00793432022077 -0.0229605765437 0
-0.0045658695279 -0.00119426866516 0
0.00453381404145 -0.0011852137634 0
0.00414349608648 -0.0126591168125 0
-0.00615237014524 -0.00772326322712 0
-0.00147172976968 -0.0148379826988 0
-0.00185984574237 -0.0210170620089 0
-0.00122949375641 -0.0603537173076 0
-0.00506919374865 -0.00178123657487 0
0.00515735479591 -0.0018632389623 0
0.00216240284948 -0.0546845278995 0
-0.00391924483074 -0.000208861682899 0
0.00396077612821 -0.000219683744677 0
0.00105733092109 -0.00710305454563 0
-0.0060562501401 -0.00450369180102 0
-0.00613438179296 -0.00302050982379 0
-0.0056829233541 -0.00410729258759 0
0.000676470302645 -0.0623402830635 0
-0.0024792960466 -0.0418239321916 0
-0.00163981824836 -0.0556168742243 0
0.00184797534333 -0.0027977351828 0
0.00549733429491 -0.0368553380928 0
-0.00757418349477 -0.0132805155285 0
-0.00498397147324 -0.0376747784588 0
-0.000695297028459 -0.00852130787625 0
0.00563891752121 -0.0107916505431 0
0.000458531707682 -0.0153945332464 0
-0.00143803115145 -0.00259311086349 0
-0.00402564289625 -0.0105730478803 0
0.00688538598977 -0.0342662835682 0
0.00755593361174 -0.0183554608667 0
0.00457749240214 -0.000768611943077 0
-0.00456137086065 -0.000760208742761 0
-0.00072260507155 -0.0294163305943 0
0.000255521665141 -0.0156737485507 0
-0.000316556613437 -0.06511363366 0
0.00490469146417 -0.000495868150939 0
-0.00486833501221 -0.00048496964515 0
0.00137941951536 -0.0504032886878 0
-0.000672052798313 -0.00524990110111 0
0.00604475070004 -0.00276895890901 0
0.000274712413693 -0.020886154926 0
0.00838328683181 -0.0105263658837 0
0.00114986848134 -0.0612869767646 0
-0.00183621643356 -0.00145720935651 0
0.00177679303174 -0.00150322989218 0
-0.0021797352253 0.000175412259531 0
0.00222786030586 0.000163268553119 0
0.00501059283696 -0.00498780524136 0
0.00545132380834 -0.0030293054363 0
0.00374086163479 -0.0468671455022 0
0.000701239304379 -0.0369619892534 0
-0.00814544794887 -0.0237974398131 0
0.00727897108078 -0.0160898987341 0
-0.00547958491241 -0.0117644512453 0
0.0054189342401 -0.00422599817558 0
-0.00508956931068 -0.0428339380993 0
-0.00203798394096 -0.000418721218278 0
0.00208654888381 -0.000427115730304 0
0.00152310326731 -0.0128847448918 0
-0.00397857145504 -0.00165486094364 0
0.00401592141283 -0.00165195480934 0
-0.00440746255364 -0.00485679019544 0
-0.00122096772263 -0.0506285112577 0
-0.0043332088438 -0.0200439560447 0
0.000873914329112 -0.0379894173274 0
-0.0079460911493 -0.00886258472106 0
0.000902650329824 -0.00362854330952 0
0.00498804593551 -0.00819147601358 0
-0.00483575613479 -0.000944895598281 0
0.00487806526721 -0.000953009181846 0
0.000510859596853 -0.00516624213784 0
-0.000239395745385 -0.00958023737199 0
-0.00380265311349 -0.00847430766847 0
0.000481555324319 -0.0113917347125 0
0.0014807194792 -0.00217507288109 0
0.00777702526296 -0.00782587599966 0
-0.00747462532839 -0.00817914151145 0
-0.00585944467178 -0.0364049529605 0
0.00121634130116 -0.0533682907376 0
-0.00558536442887 -0.00150546785161 0
0.00560181375314 -0.00149606943165 0
0.00586707527228 -0.0237538316223 0
0.00819032373802 -0.0244555730304 0
-0.00316705865117 -0.000588088061233 0
0.00321055400803 -0.000595889528514 0
0.00580892595539 -0.00769301722328 0
0.00475955503268 -0.0215437939228 0
-0.00790484782671 -0.0139816787905 0
0.00703897398214 -0.0045407780397 0
-0.000876760404872 -0.0246982977968 0
0.00624179850913 -0.0364432446374 0
-0.00590401562056 -0.0282208363639 0
-0.00278771086114 -0.00254157418742 0
0.00512297619717 -0.000706337374124 0
-0.00509608613328 -0.000695254494227 0
-0.00311058109678 -0.00118473259984 0
0.00318972832703 -0.00117761063419 0
-0.00529023848998 -0.0237389774153 0
-0.00157850595115 -0.0542521533 0
-0.00324562213326 0.000111667574082 0
0.00328949917599 9.94216645699e-05 0
-0.000844972395232 -0.0613557681652 0
-0.00521719866945 -0.0028745232517 0
0.00329009114787 -0.036897282435 0
-0.00691721490401 -0.00457242869502 0
0.00396732962835 -0.00207514173251 0
0.00546581043985 -0.0314847334333 0
-0.0023818997291 -0.0550424591014 0
-0.000936374374791 -0.00372013380272 0
-0.00682767218488 -0.0306144694017 0
-0.000413742632568 -0.0362925438315 0
6.3810905836e-05 -0.066493268059 0
0.000775832701912 -0.0641882576673 0
-0.00191342234982 -0.000924799763037 0
0.00196234816219 -0.000929871072992 0
-1.01725024792e-05 -0.0065041762482 0
0.00422431763234 -0.0043570976752 0
9.09121803201e-05 -0.0290112160359 0
-0.00144684581777 -0.00203808872032 0
-0.000791863488671 -0.0127041559351 0
-0.00753669559101 -0.0176212025611 0
0.00318125841231 -0.00236898102133 0
-0.00326842389562 -0.0434213990943 0
-0.0034785679566 -0.00126881494507 0
-0.00351506767201 -0.0152636777258 0
0.00309973469413 -0.0521751009438 0
0.000662618542316 -0.0460320610267 0
0.00380446220343 -0.00131057552947 0
-3.80970657143e-05 -0.0497754325595 0
-0.00701819022161 -0.0288408080632 0
-0.00248811396973 -0.00050465272602 0
0.00250039586747 -0.000507587374444 0
-0.00317548599615 -0.00453109182152 0
0.00340663243824 -0.0048304863462 0
0.00845120390768 -0.0155078395666 0
-0.00390949283309 -0.0020936470035 0
0.00405680954169 -0.0448568389539 0
-0.00358768320306 -0.0493750323944 0
0.00658438079346 -0.0152859412621 0
-0.00825158414926 -0.0100241403737 0
0.00248462909065 -0.00867407208516 0
0.00510573054211 -0.0299982096142 0
-0.0043885601185 -0.000639757173289 0
0.00442732544884 -0.000647655029418 0
-0.0062090712617 -0.0130030928055 0
0.00421563199328 -0.013308129244 0
0.000940804175689 -0.0212472042129 0
-0.00544074735879 -0.00141607566686 0
-0.000709665524479 -0.0635316143421 0
0.00547633955302 -0.00142096001998 0
0.00454197214462 -0.000194885978516 0
-0.0045039724252 -0.000182127063874 0
0.00359257203579 -0.0223356293166 0
0.00268994332373 -0.0032932871138 0
0.00189853097807 -0.00581701435304 0
-0.00377012984652 -0.00527526657073 0
0.00085294418048 -0.0578727218871 0
0.0074513363432 -0.00701477281889 0
8.99375014208e-06 -0.006591904455 0
0.00469279999974 -0.00228275122744 0
0.00802611367428 -0.0214354473327 0
-0.0059090873481 -0.00234292390688 0
-0.00280447188188 -0.000720245525468 0
0.00281585919878 -0.000726933946141 0
-0.00430132514238 -0.00377099220244 0
-0.00651359883087 -0.0062919194776 0
-0.00202678659193 -0.00011134548482 0
0.00207555197458 -0.000121782344728 0
-0.00272179611725 0.000301991223581 0
0.00276762167378 0.000288973902553 0
-0.00195864942765 -0.00715510522771 0
-0.00436922588585 -0.00612509839564 0
-0.00682409489037 -0.0047387894187 0
-0.008589755139 -0.0189499310495 0
-0.00158451686146 -0.0355505642568 0
0.00190326780053 -0.00738279760503 0
0.00641192750812 -0.00392140862929 0
-0.00447759777643 -0.00129049065456 0
-0.000493192144799 -0.00718736606511 0
0.00451297298458 -0.00124841787724 0
0.00729947212371 -0.00819161293604 0
0.00581321348293 -0.0390840267677 0
-0.0021633068458 -0.0183512061127 0
0.000329329334636 -0.0444005249147 0
-0.00782360891609 -0.0273894719989 0
0.000990511546821 -0.00301123961755 0
-0.00257844024238 -0.000539932774632 0
0.00262425135069 -0.000547569619103 0
-0.000196775883203 -0.0473578202526 0
-0.00049115488839 -0.0560444592645 0
0.00810890976324 -0.0222356515933 0
-0.00317991377445 -0.000247857826938 0
0.00322385034909 -0.000257537478854 0
-0.00520213908581 -0.000974926281785 0
0.00522404733051 -0.000980376193197 0
0.000232540602326 -0.0688848023766 0
0.00240403676635 -0.0513631677523 0
0.000876982575627 -0.00959907037439 0
-0.00200189057512 0.000399587658328 0
0.0020509002304 0.000386252675978 0
0.00675709966733 -0.0306171404074 0
-0.00549342861115 -0.0407375913951 0
0.000224155466269 -0.00445460296953 0
-0.00416982222454 -0.00226226249249 0
0.0083262195224 -0.0130436547986 0
-0.00249341581073 -0.00122132384593 0
0.00370656594423 -0.0106575539574 0
0.00259907466562 -0.00125668274224 0
0.00176594515283 -0.0133269165596 0
0.00391174780695 -0.0415110683448 0
0.00203263856674 -0.0180894299154 0
-0.00608361458739 -0.0362753090325 0
0.00303371769554 -0.00601771638735 0
-0.00675455792506 -0.010465672107 0
-0.00327849438003 -0.00202230489351 0
0.00601176514821 -0.00222339513453 0
0.00132684280857 -0.00184738995457 0
-0.00705256082115 -0.0219124962635 0
-0.00198990656869 -0.0484552768119 0
-0.00836930603734 -0.0158176959148 0
-0.000653531777289 -0.00320607098005 0
-0.00443724885986 -0.036198979506 0
0.000471151594043 -0.0588287353956 0
-0.00358195033696 -0.0368275808029 0
-0.00210746278878 -0.00740475062637 0
-0.000660064084215 -0.0594389851803 0
-0.00432479310059 -0.0439334970793 0
-0.00372113247025 9.50936133028e-05 0
0.00376322212266 8.22664061963e-05 0
0.00359984789053 -0.0339576180216 0
0.00632202069009 -0.0201167895829 0
0.00268227767828 -0.000711820646476 0
-0.00534992902253 -0.00616939245911 0
-0.000157849328165 -0.00443253784352 0
-0.00564136293908 -0.00234603362092 0
-0.00299431312982 -0.00319188275871 0
-0.00824629223538 -0.0182497795125 0
-0.00653442151772 -0.0147822299902 0
-0.0048088917267 -0.00364732067321 0
-0.0025292895808 -0.000674885901722 0
0.00246456991316 -0.0182573845445 0
0.00231815159344 -0.0248490203154 0
-0.00020010558118 -0.0673668425206 0
0.00617134654119 -0.0190334427637 0
-0.00382871550524 -0.000523296360944 0
0.00387133607071 -0.000531255121017 0
0.00475320709115 -0.000806451645592 0
-0.00473337679675 -0.000795493732631 0
0.00573160268884 -0.00237183081268 0
-0.000199576003989 -0.0306454940806 0
-3.98140631859e-05 -0.0565363213069 0
-0.00156945107593 -0.00119801246299 0
0.00160754729011 -0.00121527015417 0
-0.00703860511471 -0.00455530951096 0
0.000637965199069 -0.00790377346249 0
0.000247461056647 -0.0621314215858 0
0.00207996558451 -0.0022411299167 0
-0.00328089372876 -0.0250964404721 0
-0.00120028644483 -0.058695942376 0
-0.00203332899788 -0.0248615773699 0
-0.0017430119976 -0.000688464372808 0
0.0017925693395 -0.000695053948639 0
0.00288045588376 -0.0150471850008 0
0.00596179172172 -0.0043221999392 0
4.24524321739e-05 -0.0419038133321 0
0.00589974867517 -0.0136719416603 0
0.0060514124914 -0.00351704459308 0
0.0047104111762 -0.00871019254697 0
-0.00150395777949 -0.0343369174087 0
-0.00647986411688 -0.00654563658859 0
0.00364187190042 -0.00366596640182 0
-0.00291252838899 -0.0328241922432 0
-0.000128408494561 -0.0622189459014 0
-0.00202466955739 -0.00210340470045 0
-0.00206238896346 -0.0554799642869 0
-0.00212850003911 -0.00446002103387 0
0.00476060680376 -0.00371611198833 0
0.000930986752758 -0.0207428966149 0
0.00585155356049 -0.00189562343654 0
-0.000371250898953 -0.00604319097168 0
-0.00286444335027 -0.024248581009 0
0.00720342846108 -0.0313356139994 0
-0.00819477021523 -0.0119633775218 0
-0.00371122845241 -0.0185514114025 0
-0.00110060982889 -0.0085932721997 0
0.00338020061382 -0.00188874483785 0
-0.00581844319012 -0.00189080020757 0
0.00288338450883 -0.0203292503679 0
-0.00201042397983 -0.0153400180283 0
-0.00306894336475 -0.0137387371519 0
0.00484486922492 -0.0003017342764 0
-0.00480950154057 -0.000287882342062 0
0.0036161189378 -0.0488462835501 0
0.0071343871272 -0.0227549090344 0
-0.000902021473388 -0.0129987791887 0
0.00830830407484 -0.0103337310867 0
-0.00502926491576 -0.00178099172333 0
-0.00100613534733 -0.00242315126334 0
-0.00308954616789 -0.00197570057691 0
0.00115419220583 -0.0609885102173 0
-0.00274830671176 -0.0458595218736 0
-0.00249992486045 -0.0511466352354 0
0.00023282170545 -0.00574069028503 0
-0.00386139364275 -0.012629332695 0
-0.00214605262866 -0.000694470200897 0
-0.00132713787632 -0.00613053696311 0
0.00219403674062 -0.000700877473364 0
0.00489706815908 -0.00661038963586 0
0.00190736766076 -0.0336536985302 0
-4.17415671791e-05 -0.0682352120711 0
0.00310791711791 -0.0446056481731 0
-0.00603573897575 -0.00343929848901 0
-0.00580416976004 -0.0160998964736 0
0.0076684321525 -0.0283816528172 0
0.00675049190032 -0.0124371132092 0
0.00669806831032 -0.00956498178256 0
0.00140600356676 -0.0328154728792 0
0.00214039169163 -0.0565052328606 0
-0.00206566564861 -0.00950717851263 0
0.00195220520065 -0.00182034748902 0
-0.00734421240816 -0.00625156041158 0
0.000349734941167 -0.0658118315076 0
-0.00657307490264 -0.003310368408 0
0.0031851505216 -0.00200802073368 0
-0.0020882428343 -0.00292878723186 0
-0.00203495848375 -0.00113050645573 0
0.00209916650546 -0.00120771523931 0
0.00342225733382 -0.0312712962395 0
-0.00182867366412 0.000108197734093 0
0.00187848900367 9.64633741492e-05 0
-0.000349643069976 -0.0506328305809 0
-0.00130935888235 -0.00180047626192 0
-0.00510395011214 -0.000777854064665 0
0.00513857001804 -0.000785756150427 0
0.007981713925 -0.00782480315193 0
0.00116852699382 -0.0249725125966 0
0.00249237023054 -0.00704173330738 0
-0.00121675489111 -0.00437063415117 0
0.0018816227731 -0.040235350694 0
-0.00180988252277 -0.00409843002051 0
0.00556273597524 -0.0357342928476 0
-0.00405369872398 -0.0474291326313 0
-0.00753796561251 -0.0292284608379 0
-0.00620101379162 -0.0268344208456 0
-0.00085845367849 -0.0532465344875 0
-0.00235782951486 0.000465301436641 0
0.00240519179059 0.000451569780992 0
-0.00835804609083 -0.0122492814951 0
0.00103731177062 -0.00855112102111 0
-0.00293666672855 -0.000873254093942 0
0.000614708022183 -0.0532546936073 0
0.00298502778241 -0.000879023449929 0
0.00117121751164 -0.00427269087777 0
0.00134566792648 -0.0570967025032 0
-0.00751161067629 -0.00666256953234 0
-0.00731536965251 -0.0250463912398 0
0.00644470998094 -0.00476097786001 0
-0.00450486774861 -0.0410567958136 0
-0.0023383934913 -7.40948287313e-05 0
0.00238571154196 -8.48008517877e-05 0
0.00729538339854 -0.00590420140891 0
0.0045277907726 -0.0008929344177 0
-0.00452452972241 -0.000891084962672 0
0.00184402263515 -0.00340476643679 0
0.000997335422485 -0.0488631359644 0
-0.00698133772158 -0.0321826258754 0
0.00634635378051 -0.00652826584832 0
0.00674963426723 -0.0116089132082 0
-0.00501897346496 -0.000780783567778 0
0.00504138539476 -0.000789603382523 0
-0.00375948534598 -0.00382211279895 0
-0.00277257338265 -0.00300206003594 0
0.000879792822082 -0.0026404802256 0
0.006857439186 -0.00412581984799 0
-0.000773147282021 -0.0438051616473 0
-0.00374546300819 -0.00123609626987 0
-0.000499116898489 -0.00992226854157 0
0.0037824948902 -0.0012349600969 0
0.00590809668236 -0.00597812381999 0