# vtk DataFile Version 2.0
Generated with Solid Solver
ASCII
DATASET UNSTRUCTURED_GRID
POINTS 856 float 
0.0 3.5 0.0
1.6 3.5 0.0
1.6 4.0 0.0
0.0 4.0 0.0
0.0695652173912 3.5 0.0
0.139130434782 3.5 0.0
0.208695652174 3.5 0.0
0.278260869565 3.5 0.0
0.347826086956 3.5 0.0
0.417391304347 3.5 0.0
0.486956521738 3.5 0.0
0.556521739129 3.5 0.0
0.62608695652 3.5 0.0
0.695652173911 3.5 0.0
0.765217391302 3.5 0.0
0.834782608694 3.5 0.0
0.904347826085 3.5 0.0
0.973913043477 3.5 0.0
1.04347826087 3.5 0.0
1.11304347826 3.5 0.0
1.18260869565 3.5 0.0
1.25217391304 3.5 0.0
1.32173913043 3.5 0.0
1.39130434783 3.5 0.0
1.46086956522 3.5 0.0
1.53043478261 3.5 0.0
1.6 3.56430812594 0.0
1.6 3.62270835268 0.0
1.6 3.6757434324 0.0
1.6 3.7239062376 0.0
1.6 3.76764438351 0.0
1.6 3.80736436404 0.0
1.6 3.84343531219 0.0
1.6 3.87619247117 0.0
1.6 3.90594026707 0.0
1.6 3.93295517284 0.0
1.6 3.95748825478 0.0
1.6 3.97976750982 0.0
1.58000000587 4.0 0.0
1.55999996633 4.0 0.0
1.54000002214 4.0 0.0
1.51999997198 4.0 0.0
1.50000000455 4.0 0.0
1.48000000216 4.0 0.0
1.45999997931 4.0 0.0
1.44000002484 4.0 0.0
1.41999997044 4.0 0.0
1.40000002096 4.0 0.0
1.37999999963 4.0 0.0
1.35999999626 4.0 0.0
1.34000002179 4.0 0.0
1.31999997343 4.0 0.0
1.3000000318 4.0 0.0
1.27999998783 4.0 0.0
1.26000000202 4.0 0.0
1.24000001295 4.0 0.0
1.21999998074 4.0 0.0
1.20000003685 4.0 0.0
1.17999998163 4.0 0.0
1.16000001473 4.0 0.0
1.14000000469 4.0 0.0
1.11999999139 4.0 0.0
1.10000003625 4.0 0.0
1.07999997877 4.0 0.0
1.06000002802 4.0 0.0
1.04000000338 4.0 0.0
1.02000000764 4.0 0.0
1.00000002986 4.0 0.0
0.979999980237 4.0 0.0
0.960000035522 4.0 0.0
0.939999990881 4.0 0.0
0.920000014619 4.0 0.0
0.900000017903 4.0 0.0
0.879999986222 4.0 0.0
0.860000037278 4.0 0.0
0.839999982352 4.0 0.0
0.820000022783 4.0 0.0
0.800000000002 4.0 0.0
0.779999977222 4.0 0.0
0.760000017652 4.0 0.0
0.739999962726 4.0 0.0
0.720000013782 4.0 0.0
0.699999982101 4.0 0.0
0.679999985385 4.0 0.0
0.660000009123 4.0 0.0
0.639999964482 4.0 0.0
0.620000019766 4.0 0.0
0.599999970141 4.0 0.0
0.57999999236 4.0 0.0
0.559999996622 4.0 0.0
0.539999971983 4.0 0.0
0.520000021235 4.0 0.0
0.499999963756 4.0 0.0
0.480000008612 4.0 0.0
0.459999995315 4.0 0.0
0.439999985272 4.0 0.0
0.420000018371 4.0 0.0
0.39999996315 4.0 0.0
0.380000019261 4.0 0.0
0.359999987052 4.0 0.0
0.339999997986 4.0 0.0
0.320000012172 4.0 0.0
0.299999968206 4.0 0.0
0.280000026575 4.0 0.0
0.259999978213 4.0 0.0
0.240000003742 4.0 0.0
0.220000000371 4.0 0.0
0.199999979041 4.0 0.0
0.180000029557 4.0 0.0
0.159999975162 4.0 0.0
0.140000020694 4.0 0.0
0.119999997846 4.0 0.0
0.0999999954514 4.0 0.0
0.0800000280232 4.0 0.0
0.0599999778571 4.0 0.0
0.0400000336732 4.0 0.0
0.0199999941324 4.0 0.0
0.0 3.97976750982 0.0
0.0 3.95748825478 0.0
0.0 3.93295517284 0.0
0.0 3.90594026707 0.0
0.0 3.87619247117 0.0
0.0 3.84343531219 0.0
0.0 3.80736436404 0.0
0.0 3.76764438351 0.0
0.0 3.7239062376 0.0
0.0 3.6757434324 0.0
0.0 3.62270835268 0.0
0.0 3.56430812594 0.0
0.249757905714 3.75212552678 0.0
1.35000000902 3.74954526597 0.0
0.488714190926 3.75947467509 0.0
0.727445026698 3.75983525744 0.0
0.962900270309 3.76055270856 0.0
1.17161197633 3.81755162829 0.0
0.130754031542 3.86878251069 0.0
1.46924596846 3.86878251069 0.0
0.369913852535 3.84868154079 0.0
0.603236233099 3.84763103091 0.0
0.843402107212 3.84736931152 0.0
1.05041705507 3.86611282467 0.0
0.250539323282 3.87785527135 0.0
1.34882231626 3.87787871523 0.0
0.468661896861 3.89189320321 0.0
0.704258117309 3.89639128976 0.0
0.94963922804 3.89654080835 0.0
1.25000000748 3.89875296068 0.0
1.12879020517 3.91059303421 0.0
0.548928478218 3.91905583534 0.0
0.7889268651 3.91906062813 0.0
0.0712526194949 3.93011432704 0.0
1.52874738051 3.93011432704 0.0
1.4740071133 3.74293106904 0.0
0.125992886699 3.74293106904 0.0
0.329956761073 3.92118145982 0.0
1.09412206522 3.66725831207 0.0
0.190000004299 3.92542384899 0.0
1.41098423528 3.92728100222 0.0
0.629999992124 3.92414139091 0.0
0.87000001175 3.92414140592 0.0
0.853391941071 3.71944243214 0.0
0.610032822379 3.72536074396 0.0
0.41090315692 3.92892991009 0.0
0.370435019193 3.7251305208 0.0
1.01000001875 3.93130199947 0.0
1.22823348571 3.68694249365 0.0
1.18894423177 3.93487447818 0.0
1.31063576122 3.93502724255 0.0
0.129927636183 3.94112156482 0.0
1.47007236382 3.94112156482 0.0
1.07646504896 3.76194504855 0.0
1.07000000339 3.94017719684 0.0
0.270000002394 3.93875928556 0.0
1.26759839792 3.80243333593 0.0
0.770332946246 3.83880063275 0.0
0.530342720064 3.83880306325 0.0
0.189898092614 3.63474333735 0.0
1.4101772205 3.6313147556 0.0
0.942883893479 3.62966700486 0.0
0.510631148905 3.62429064243 0.0
0.754670889573 3.63369080225 0.0
0.489999986184 3.94463854908 0.0
0.732500655853 3.9452729887 0.0
0.193627936713 3.81528931126 0.0
1.40183871842 3.81461096917 0.0
0.928721275957 3.94715071018 0.0
0.0604617896557 3.86281267064 0.0
1.53953821034 3.86281267065 0.0
1.25036152032 3.94913766834 0.0
0.30096552553 3.81141484704 0.0
0.297089357677 3.66359682597 0.0
0.394212311705 3.61316974741 0.0
0.831051681923 3.94633984116 0.0
0.592085081305 3.94901138542 0.0
0.669405291514 3.95495209798 0.0
1.3611855791 3.94637621082 0.0
0.928496698914 3.82436133158 0.0
0.444093171593 3.8271987226 0.0
0.683378885111 3.8234871366 0.0
0.372430737197 3.95235208784 0.0
1.19348789949 3.87019408468 0.0
1.15124363553 3.95467023547 0.0
0.229287653728 3.96038323295 0.0
0.646635519079 3.61231195482 0.0
0.986819459779 3.84973028271 0.0
1.11214815433 3.84770266014 0.0
1.50610225987 3.6604664246 0.0
0.0938977401332 3.6604664246 0.0
0.531976760298 3.96138656711 0.0
0.451361041931 3.96112773652 0.0
0.771976835888 3.96138886125 0.0
1.53311213884 3.79435404356 0.0
0.066887861162 3.79435404356 0.0
0.970836553066 3.9620233382 0.0
0.311702426505 3.96111572975 0.0
1.31698094247 3.6658628839 0.0
1.11177843379 3.95948388532 0.0
1.15003411964 3.72957279566 0.0
0.890058924798 3.96133576813 0.0
0.169108880648 3.96040269401 0.0
1.42850737314 3.96465656678 0.0
0.0426347993992 3.9610175717 0.0
1.5573652006 3.9610175717 0.0
1.28993057938 3.85776473604 0.0
1.34652710411 3.82072629166 0.0
0.897316840472 3.87585124602 0.0
0.814484972147 3.79171515708 0.0
0.573290986674 3.7879873938 0.0
1.02164717476 3.69631051635 0.0
0.41798215839 3.87594988344 0.0
1.18469655214 3.6045863568 0.0
0.657426542805 3.87734841349 0.0
0.0893439701605 3.9657484063 0.0
1.51065602984 3.9657484063 0.0
0.850202761783 3.61862953305 0.0
0.185775988195 3.86980628439 0.0
1.41422401181 3.86980628439 0.0
0.305957202498 3.87340573583 0.0
0.629999992124 3.96272981278 0.0
0.686026569054 3.68766751472 0.0
1.03220081924 3.96436031967 0.0
0.445441337222 3.69456289967 0.0
1.33308537187 3.96770341358 0.0
1.0249206042 3.60512275769 0.0
0.128645746764 3.81165411571 0.0
1.47135425324 3.81165411571 0.0
1.29077706219 3.96625078806 0.0
1.21302440104 3.96491551313 0.0
0.373320303365 3.89968789902 0.0
0.409457647309 3.96502881891 0.0
1.39076199588 3.96614348387 0.0
1.2156032112 3.76624353786 0.0
0.383301616321 3.78976397621 0.0
0.593246012246 3.8948346816 0.0
0.833004203108 3.89475034107 0.0
0.187583903859 3.70688411961 0.0
1.41241609614 3.70688411961 0.0
1.08573330585 3.89673930733 0.0
1.04303343403 3.81530385578 0.0
0.103644791029 3.90516202075 0.0
1.49635520897 3.90516202075 0.0
1.23586605501 3.85112068621 0.0
0.921814270996 3.70213058021 0.0
0.532219762185 3.7029333087 0.0
1.28217045716 3.7375098981 0.0
0.779621693208 3.70806977531 0.0
0.998890529268 3.88397615296 0.0
0.659406618131 3.76469373474 0.0
0.230043799244 3.91599372373 0.0
1.53690667654 3.72637971331 0.0
0.0630933234627 3.72637971331 0.0
0.153148105836 3.90639761309 0.0
1.4478092366 3.90500627713 0.0
0.512139854501 3.90538519137 0.0
0.750930702019 3.90340708 0.0
0.0409150717909 3.90046251393 0.0
1.55908492821 3.90046251393 0.0
0.702096631597 3.96656725638 0.0
0.246204062466 3.82734823738 0.0
0.872012730916 3.80079945556 0.0
0.313419524246 3.75328100976 0.0
1.26305184675 3.57725747237 0.0
1.04341944162 3.90846795586 0.0
0.697725469476 3.93030230037 0.0
0.27003033309 3.96477332623 0.0
0.632456188669 3.80120134001 0.0
0.55988813035 3.96676596088 0.0
0.798125231733 3.9668778541 0.0
0.861599835739 3.96514225679 0.0
0.130196681328 3.96566148827 0.0
1.46980331867 3.96566148827 0.0
0.337465698618 3.96873835045 0.0
1.10690030388 3.57445060302 0.0
1.07038768144 3.96631210642 0.0
0.201908835349 3.96783542832 0.0
1.17640357301 3.96795841043 0.0
0.482502283815 3.8454083814 0.0
1.37723451734 3.90442225885 0.0
0.722497886517 3.84543272537 0.0
0.254749007352 3.57960328731 0.0
0.449206209982 3.91785378051 0.0
0.907803563184 3.91575967116 0.0
0.997592319531 3.96832081731 0.0
1.3597087328 3.59165409162 0.0
0.797785363131 3.87112617582 0.0
0.557788209884 3.87112741711 0.0
0.133223775006 3.57024633267 0.0
1.46673023696 3.57019175074 0.0
0.296361477075 3.90524448543 0.0
1.29555045611 3.90092076583 0.0
1.11951450862 3.79592056714 0.0
0.341558640376 3.57546927501 0.0
0.974255514016 3.92370320024 0.0
0.664786082443 3.91707165091 0.0
1.1442561544 3.86460464827 0.0
0.430695849932 3.74774845865 0.0
1.22439218721 3.92431164104 0.0
0.917330800791 3.76752811157 0.0
0.0995806821614 3.83759752714 0.0
1.50041931784 3.83759752714 0.0
0.586492545959 3.6571718064 0.0
1.16809690663 3.90376349956 0.0
0.490525946651 3.9687439861 0.0
0.170108846494 3.77025381333 0.0
0.726723612771 3.96611364881 0.0
1.42998397347 3.77014833166 0.0
1.55978981314 3.82099569701 0.0
0.0402101868575 3.82099569701 0.0
1.10043652243 3.92805072974 0.0
1.34111814411 3.91924529479 0.0
1.27430066613 3.93505265881 0.0
0.56431092584 3.57086686051 0.0
0.930516510487 3.96969091611 0.0
1.17713743504 3.67180033503 0.0
0.801256410508 3.5635758738 0.0
1.37979186382 3.84566323689 0.0
1.02277822921 3.7577258162 0.0
0.252009847995 3.68167957306 0.0
0.0497138210057 3.58866012032 0.0
1.55028617899 3.58866012032 0.0
0.466046622144 3.57331739513 0.0
0.343019074867 3.81481221655 0.0
0.0645235269233 3.96909610548 0.0
1.53547647308 3.96909610548 0.0
0.0310141903995 3.92955737583 0.0
[...]
POINT_DATA 856
VECTORS Displacement float
0.0 0.0 0
0.0 0.0 0
0.000338403744323 0.000671663457617 0
-0.000303865885744 0.000682115420395 0
0.0 0.0 0
0.0 0.0 0
0.0 0.0 0
0.0 0.0 0
0.0 0.0 0
0.0 0.0 0
0.0 0.0 0
0.0 0.0 0
0.0 0.0 0
0.0 0.0 0
0.0 0.0 0
0.0 0.0 0
0.0 0.0 0
0.0 0.0 0
0.0 0.0 0
0.0 0.0 0
0.0 0.0 0
0.0 0.0 0
0.0 0.0 0
0.0 0.0 0
0.0 0.0 0
0.0 0.0 0
0.000851485283681 -0.000467954374824 0
0.00144466406547 -0.00046710027763 0
0.00180272727131 -0.000293275666214 0
0.0019017331039 -5.36077855692e-05 0
0.0018441687855 0.000166694728377 0
0.00168359154261 0.000354664133135 0
0.00146097008034 0.00049096397648 0
0.00123336436558 0.000583770589909 0
0.00100705083805 0.000639198830388 0
0.000801583023072 0.000662288093127 0
0.000623730406477 0.000671246645611 0
0.000471309735412 0.000672249834798 0
0.000338989813587 0.000540863711487 0
0.00033926548929 0.000415669627135 0
0.00033475252169 0.000297531775908 0
0.000322529463918 0.000186094141139 0
0.000299798311873 7.930062782e-05 0
0.000264407423685 -2.87352444645e-05 0
0.00021422838657 -0.00013558952352 0
0.000149256691192 -0.000253177874333 0
6.61434798423e-05 -0.000378469312669 0
-3.02243858078e-05 -0.000522598602996 0
-0.000146874890859 -0.000680645231411 0
-0.000279722513298 -0.000867914811799 0
-0.000435684229652 -0.00108189721031 0
-0.000608176865923 -0.00133237432506 0
-0.000792743781997 -0.00162136805338 0
-0.00100609269312 -0.0019536831605 0
-0.00122943426751 -0.00233493433138 0
-0.00146498105289 -0.00277904875943 0
-0.00172505669388 -0.00329030283004 0
-0.00201498021686 -0.00387101461898 0
-0.00230765137307 -0.00454559114194 0
-0.00263475959675 -0.00532009568208 0
-0.00295198599323 -0.00620932010378 0
-0.00327567420004 -0.00723721362473 0
-0.00363058738896 -0.00840358910234 0
-0.00397059318646 -0.00975202959384 0
-0.0043510169374 -0.0113369738251 0
-0.00467488776684 -0.0131780923709 0
-0.00503095964452 -0.0154431641593 0
-0.0052439261031 -0.0181141062496 0
-0.00487598078248 -0.0226170237845 0
-0.00436294048814 -0.0265939383741 0
-0.00379060117438 -0.0300679872842 0
-0.00313041364551 -0.033047367108 0
-0.00253226706638 -0.035569824838 0
-0.00193133539488 -0.0376304421498 0
-0.00139552350052 -0.0392354873783 0
-0.000861672699709 -0.0403816212352 0
-0.000364750497882 -0.04106699896 0
9.90530425381e-05 -0.0412971624174 0
0.000513966269918 -0.041074740247 0
0.00098799226121 -0.040387542463 0
0.00147440941909 -0.0392430278867 0
0.00203361003262 -0.0376450224384 0
0.00260125624156 -0.0355798649791 0
0.00320775434013 -0.0330625330527 0
0.0038524759137 -0.0300707495464 0
0.00448220097036 -0.0266142223802 0
0.00500669796082 -0.0226495875533 0
0.0053139810415 -0.0181367531182 0
0.00501115638024 -0.0154038735159 0
0.00471118816754 -0.0131861906939 0
0.00438703820708 -0.0113468224913 0
0.00402344830144 -0.00974913229697 0
0.00368162725929 -0.00838503009822 0
0.00330934071088 -0.00720803353541 0
0.00297505762051 -0.00619586505464 0
0.00264407929347 -0.00531811589824 0
0.00234556650474 -0.00454528348769 0
0.00204671898596 -0.00387174186901 0
0.00175676209829 -0.00328854546551 0
0.00149882014238 -0.00277738072155 0
0.00125493901532 -0.00233850056203 0
0.00103046345913 -0.00195250104572 0
0.000820855327829 -0.00162162068677 0
0.000636988947294 -0.00133173474432 0
0.000465002703178 -0.00108488457953 0
0.000316199921134 -0.0008676594525 0
0.00018168026339 -0.000681345814495 0
6.34759814982e-05 -0.000521392344303 0
-3.22975308047e-05 -0.000377127097289 0
-0.000114861396458 -0.000251494565632 0
-0.000179624498383 -0.000132230813624 0
-0.000230037790705 -2.41631863747e-05 0
-0.000265325053166 8.46917095022e-05 0
-0.000288002444808 0.00019250510508 0
-0.000300206537601 0.000304969639204 0
-0.000304720868087 0.000424125192334 0
-0.000304450270508 0.000550320344355 0
-0.000437779858454 0.000682700062416 0
-0.000591302920472 0.000681690547635 0
-0.0007703415472 0.000672731322683 0
-0.000977076724653 0.000649670887348 0
-0.00120479451675 0.00059436586657 0
-0.00143409280641 0.000501776897581 0
-0.00165871977453 0.000365762843031 0
-0.00182207852027 0.000178138518777 0
-0.00188334539414 -4.22424394069e-05 0
-0.00178873498914 -0.000282974921375 0
-0.00143470328029 -0.000458954005242 0
-0.000845090536024 -0.000462503467557 0
-0.00248934620345 -0.000836230349669 0
0.0025214011666 -0.000828925599066 0
-0.00402387560301 -0.0059764998475 0
-0.00194619832147 -0.0161300863964 0
0.00371063458583 -0.0128031259676 0
0.00310936657199 -0.00441367657516 0
-0.00132395568632 -6.01938687141e-05 0
0.00135139767678 -6.47506809483e-05 0
-0.00214984775011 -0.00277854060742 0
-0.00369675812024 -0.0148898987878 0
0.0012514559243 -0.02442470326 0
0.00317915551764 -0.0112248121938 0
-0.00130305373085 -0.000847432887246 0
0.00133266792722 -0.000855450388184 0
-0.00169681422974 -0.00636950143169 0
-0.0019631214948 -0.0264192516209 0
0.00268481263887 -0.0216838930572 0
0.00107611465104 -0.00236153465337 0
0.00108729943975 -0.00655527679321 0
-0.00133710895286 -0.0118583464393 0
-0.000143041076295 -0.0323328958358 0
-0.000792443595005 0.00024130800028 0
0.000823458658902 0.000234407872543 0
0.00208390665713 -0.00015624163221 0
-0.00206277746252 -0.000152532595594 0
-0.000547970666632 -0.00197319670815 0
0.0036880670666 -0.00450257679031 0
-0.000717842667466 -0.000370192792914 0
0.000731014691396 -0.000364481582405 0
-0.0018078786302 -0.0209510637128 0
0.00105397635716 -0.0308009114288 0
0.00138748062144 -0.0134747310893 0
-0.00378233040292 -0.00981143053673 0
-0.000257497368372 -0.0040436276876 0
-0.00330989135168 -0.00236873460711 0
0.00124936159783 -0.0162409732274 0
0.00325208333532 -0.00211671975367 0
9.30979613981e-05 -0.0040634351257 0
0.000397037749413 -0.00133430759595 0
-0.000649722160101 -4.45012242519e-05 0
0.000681028745447 -4.77448744973e-05 0
0.00418898717303 -0.00746510663968 0
7.63997068848e-05 -0.0103566099691 0
-0.000359329196608 -0.00108717314616 0
0.00262286741613 -0.00194083565304 0
-0.000810128535518 -0.0238722703763 0
-0.00354426155298 -0.00942462367844 0
-0.00189955602973 -0.00035739887436 0
0.00189288313038 -0.000358803583803 0
0.00230632027884 -0.00629337943691 0
-0.0031024473109 -0.00344255344748 0
-0.000845680548275 -0.0076771573482 0
0.000364762000339 -0.00761612133551 0
-0.000414601454322 -0.0330786243748 0
-0.00187692447953 -0.000409757042295 0
0.00192605723005 -0.000442262600078 0
0.000707457300788 -0.0276057063021 0
-0.0013406763132 0.000231235866702 0
0.00136872469254 0.000223786077231 0
-0.000124035259446 -0.00240232331781 0
-0.00232083092167 -0.00145454917829 0
-0.00265472146975 -0.00107111788872 0
-0.00265262597189 -0.0016693564569 0
0.000255331944059 -0.0349114403616 0
-0.000171927790276 -0.0168183945876 0
-0.000184844582214 -0.0279863852541 0
0.00037527854581 -0.00076888321084 0
0.00329120270571 -0.0185258542613 0
-0.00306278200045 -0.0050100401751 0
-0.00300706373053 -0.0191889212112 0
0.000349482109648 -0.00294385593975 0
0.00193951848366 -0.00384905254482 0
-0.000747405453203 -0.00554457746228 0
-0.000198275170844 -0.000695312472959 0
-0.00223087067724 -0.00522512511059 0
0.00369725083603 -0.0158084944377 0
0.00306028120575 -0.00712127429495 0
0.00183487351895 -0.000150695763029 0
-0.00182328074529 -0.000145516351247 0
0.00129885667321 -0.0105412337113 0
0.00108365114359 -0.00565325101017 0
4.90257651341e-05 -0.036664339364 0
0.0018277068098 7.94606903906e-05 0
-0.0018032859554 8.66905813684e-05 0
-0.000328924408382 -0.0226723604758 0
0.000223438200229 -0.00170357588632 0
0.0025988847647 -0.000963763555106 0
-0.00111629806156 -0.00754842542751 0
0.00386882375456 -0.00424933874198 0
-1.67489591897e-05 -0.0329947004358 0
-0.000400006603694 -0.000263414864414 0
0.000386825132852 -0.000282696300929 0
-0.000563495547955 0.000407213969289 0
0.000596090712798 0.000398880446064 0
0.0017651302859 -0.00159928273329 0
0.0020440697926 -0.000876485795995 0
0.00233581448796 -0.0245190472493 0
0.000442481463745 -0.0198013081042 0
-0.00417109299275 -0.0106781502751 0
0.00384076881991 -0.00748687841018 0
-0.00183260956002 -0.00422223493251 0
0.00257452434499 -0.00175451991938 0
-0.00297421830278 -0.0210866040975 0
-0.000501064105124 0.000151975152662 0
0.000533930903507 0.000146052565019 0
0.00087945243783 -0.00664351089617 0
-0.00134662454755 -0.000339408752635 0
0.0013727854476 -0.000338505474043 0
-0.00146322564121 -0.00153990870123 0
0.000460394460686 -0.0228572554182 0
-0.00247355282347 -0.0101454197335 0
-0.00130206729211 -0.0139425731043 0
-0.00372744184466 -0.00362674950642 0
-4.88152925455e-05 -0.00109044573182 0
0.00264657412129 -0.0038622981707 0
-0.00177876461405 -9.4254526869e-05 0
0.00180596981573 -9.92817308797e-05 0
-0.000272602106203 -0.00167555209347 0
-0.000774813250913 -0.00336021713495 0
-0.00105863269143 -0.00291353699481 0
0.00096973678208 -0.00404933585044 0
0.000243540477304 -0.0005391520767 0
0.00330868030392 -0.00288863325257 0
-0.00307232688426 -0.00297332350362 0
-0.00269633633795 -0.0157007796857 0
0.000769696476859 -0.0293890885558 0
-0.00225381953434 -0.000399850660702 0
0.00226812319894 -0.000396600882122 0
0.00195071428988 -0.00905936032393 0
0.00400621485349 -0.0105886025238 0
-0.000994425609204 7.89925165662e-05 0
0.00102409537606 7.36079906519e-05 0
0.00210644216754 -0.00265311292461 0
0.00271392110315 -0.0108688970601 0
-0.0039808767657 -0.00620534738229 0
0.0029565516753 -0.00157585512371 0
-0.000523752007893 -0.0129703148431 0
0.00309034371502 -0.016107796175 0
-0.00338412695138 -0.0140297445813 0
-0.000779952761959 -0.000666545705303 0
0.00198975343967 -5.42375151549e-05 0
-0.00197122511973 -4.7013076813e-05 0
-0.000959094834835 -0.000156502547029 0
0.00100537199335 -0.000155435078338 0
-0.00156397426039 -0.00894388897457 0
-0.00097182367095 -0.0297376713566 0
-0.00103328454917 0.000377227553389 0
0.00106301214886 0.000368811192517 0
0.000400651022859 -0.0327310510452 0
-0.00192014549749 -0.000813482604382 0
0.00203545796746 -0.0194103524861 0
-0.00285027718087 -0.0015634328701 0
0.00180919492595 -0.00081479842995 0
0.00193244043186 -0.0124517050845 0
-0.00119166022191 -0.0289554472779 0
5.14301697793e-05 -0.00112442988108 0
-0.00381481303375 -0.0147457163641 0
0.0015848869141 -0.0130918357011 0
6.75324711989e-05 -0.0376506931554 0
-9.81562578147e-05 -0.0355397419812 0
-0.000443452890957 -5.55388546291e-05 0
0.000476473021918 -5.94901296369e-05 0
0.000549327737607 -0.00218843679111 0
0.00212828809041 -0.00194339315897 0
-0.0016053869821 -0.0103689090236 0
-0.000221583581113 -0.000487183733588 0
-0.00114845621003 -0.00455119188319 0
-0.00304278500096 -0.00681081947853 0
0.000971249579295 -0.000602362305558 0
-0.00207215387781 -0.0229728759385 0
-0.00151137780529 -0.000459075879714 0
-0.000692526874657 -0.0055064246503 0
0.00176157470069 -0.0271516630952 0
-0.00117249776328 -0.0185561890628 0
0.00164034246478 -0.000462636584968 0
-2.34552790184e-05 -0.0273358245734 0
-0.00308332873655 -0.0119387590598 0
-0.00103162620436 -0.000141699466274 0
0.00103954458558 -0.000143493738497 0
-0.00089111942151 -0.00141221118532 0
0.00099923671835 -0.00152446126915 0
0.00378027979734 -0.00621320518461 0
-0.00178635950627 -0.000826696955339 0
0.00185728853789 -0.0204184078997 0
-0.00194097993639 -0.0245686372339 0
0.00240775668052 -0.00569045389917 0
-0.00368640493897 -0.00392780712877 0
0.000448281453345 -0.00298931179168 0
0.00299632307698 -0.0152233593975 0
-0.00156073000604 4.00346981345e-05 0
0.00158711153132 3.45845766691e-05 0
-0.00330074006897 -0.00612613811577 0
0.00113689374562 -0.00477993503036 0
0.00167977884775 -0.00767960989679 0
-0.00209672861602 -0.000303800676797 0
0.000267921532971 -0.0348517291166 0
0.00212048873685 -0.000307232619691 0
0.00164594833346 0.000226318525685 0
-0.00162023487128 0.000234930287529 0
0.000513268349946 -0.00817294964612 0
0.000724194616104 -0.000948802586225 0
0.000288988733804 -0.00190559521721 0
-0.00198959952874 -0.00247411214021 0
-0.000709113061321 -0.029189030081 0
0.0034784065519 -0.00284282967503 0
6.07571587377e-06 -0.00338645104487 0
0.00168090900552 -0.000581743930897 0
0.00418663043752 -0.00980773726388 0
-0.00247853783503 -0.000762038059065 0
-0.00112368738138 -0.000198145694111 0
0.00113110324203 -0.000202374339269 0
-0.00212480353846 -0.00165074083753 0
-0.00252282976796 -0.00214974047803 0
-0.000497020408471 0.000283010776031 0
0.000530025307561 0.000275790066147 0
-0.000800618270361 0.000462434483894 0
0.00083169046722 0.000453515818424 0
-0.00110942993999 -0.00362389481307 0
-0.00140909762882 -0.00202477521144 0
-0.00305883194287 -0.00181027476141 0
-0.00411432929915 -0.00803132251967 0
-0.000984681020795 -0.0189351833112 0
0.00108173034464 -0.00374203648493 0
0.00255882751073 -0.00126243103376 0
-0.00159220716467 -0.00021127395877 0
-0.000771481687427 -0.00245515833245 0
0.0016181318117 -0.000197045792435 0
0.00297028904212 -0.00295184484996 0
0.00338308391084 -0.0190924381772 0
-0.00200449837051 -0.00666976433842 0
0.000215286365729 -0.0241314226526 0
-0.00379980300965 -0.011822016044 0
1.30052917115e-05 -0.000858358377294 0
-0.000734040392855 0.000101023795542 0
0.000765235993695 9.56221289145e-05 0
0.00150098805898 -0.0192422687209 0
0.00111317458606 -0.0272272125943 0
0.00365367702604 -0.00913825224459 0
-0.00100264896838 0.000221305298376 0
0.00103246920444 0.000214526398365 0
-0.00207121748626 -0.000197702003271 0
0.00208682911214 -0.000201394719753 0
-0.000300746245304 -0.0389395015922 0
0.00151802618939 -0.0277512164611 0
0.00104966619545 -0.00337764597321 0
-0.000486366068155 0.000505143509173 0
0.000519531173939 0.000496027851316 0
0.00380033549516 -0.0148029096252 0
-0.0029215942869 -0.0188855616561 0
-0.000358334947653 -0.00141088495506 0
-0.00142076238428 -0.000567187218207 0
0.00406655545085 -0.00558516532389 0
-0.000686265224699 -0.000170091107878 0
0.000949918131795 -0.00374669278159 0
0.000742541268301 -0.000184781276083 0
0.00159354172327 -0.00480157636331 0
0.00245492808307 -0.0217192982213 0
-0.000132192635138 -0.00654469171341 0
-0.0035111949601 -0.017717566177 0
0.00166691193191 -0.00294060296912 0
-0.00257717499524 -0.00378607116241 0
-0.00101455086306 -0.000471685686789 0
0.00249078302992 -0.000692222908882 0
0.000191717711823 -0.000417736253894 0
-0.00275323909448 -0.00854126226116 0
-0.001289184609 -0.0262554497366 0
-0.00369388279013 -0.00629615714718 0
0.000144719411835 -0.00093511276847 0
-0.00137274526285 -0.0144704575988 0
0.000265101568407 -0.0328689546912 0
-0.00220925968922 -0.0193088260069 0
-0.000309050748336 -0.00250705221624 0
0.000814078112868 -0.0306057277811 0
-0.00266858126937 -0.0226457897417 0
-0.00124969925871 0.00036785965271 0
0.00127817442526 0.000359102417989 0
0.000566610855327 -0.0129025325531 0
0.00348723062772 -0.00978699762008 0
0.00113941340684 -0.000238593682114 0
-0.00190046602727 -0.00205779993633 0
0.000397123608699 -0.00140292218059 0
-0.00216372213012 -0.000639747368219 0
-0.000851579976931 -0.000908331035171 0
-0.00418939174315 -0.00816310386199 0
-0.00238755658229 -0.00547908786917 0
-0.00169334739634 -0.00109059686816 0
-0.0010718195799 -0.00022573358198 0
0.0021345203549 -0.00663366559934 0
0.00249365557356 -0.00893161816779 0
0.000578527630334 -0.0376971757188 0
0.00212488598726 -0.00714647314026 0
-0.00129659085335 9.90099593006e-05 0
0.0013252365807 9.32778729907e-05 0
0.00187461868408 -0.000133876196479 0
-0.00186059303318 -0.00012675387734 0
0.00221775504577 -0.000652064204976 0
-0.000123450684573 -0.0162485816213 0
-0.0017819423657 -0.0271833268467 0
-0.000295088277902 -0.000164910953036 0
0.000323438399865 -0.000173106450271 0
-0.00301434736906 -0.00163160929763 0
0.000875825197715 -0.00272828081411 0
-0.00131999282865 -0.0325708000671 0
0.000492062407302 -0.000558548755977 0
-0.000300231066191 -0.00922284107311 0
-0.000599476427368 -0.0324091990627 0
-0.00236007792309 -0.00893852015492 0
-0.00037398440803 3.97315271508e-05 0
0.00040746503244 3.48988253989e-05 0
0.000394899151389 -0.00541432896479 0
0.00227451097308 -0.00137565107115 0
0.00188387664782 -0.0155672837478 0
0.0031894222389 -0.00657123768296 0
0.0027078945024 -0.00133123228363 0
0.00151199462975 -0.00301621271593 0
-0.00269447999521 -0.0120404446725 0
-0.00314492078749 -0.00278355331882 0
0.00114194987988 -0.00108675415875 0
-3.07688247422e-05 -0.0122086994435 0
-3.62224258235e-05 -0.0349870537829 0
-0.000460913319319 -0.000506180708684 0
-0.00116466767017 -0.0299936538366 0
-0.000425242646885 -0.00139027180647 0
0.00167272248512 -0.00111434629519 0
0.000550681609793 -0.0108386933741 0
0.00232648791763 -0.000508742903492 0
-0.000668857591438 -0.002020305561 0
-0.00168707277164 -0.0125872392699 0
0.0035108284215 -0.0136434437251 0
-0.00395744112711 -0.00507192059812 0
-0.000697608403825 -0.00676463667576 0
-0.00107935600089 -0.00299867408491 0
0.00107441013583 -0.000422942618134 0
-0.00230222419304 -0.000503696715241 0
0.00167705492971 -0.0104926693283 0
-0.00178325051584 -0.00555736715369 0
-0.00174134301677 -0.00698446067017 0
0.00180027272639 0.000171944143465 0
-0.00177636527479 0.00018117646725 0
0.00184563491963 -0.0236792331393 0
0.00284067751295 -0.00894046472003 0
0.000456755645064 -0.00464143259668 0
0.003691063467 -0.00402285950648 0
-0.00214207845293 -0.000598081096465 0
-2.90394460651e-05 -0.0006364431554 0
-0.00145975978972 -0.000817769324408 0
0.000456162677673 -0.0337553664864 0
-0.000726886145961 -0.0199809210654 0
-0.000868442648104 -0.0245298523816 0
0.000611763497975 -0.00190361232837 0
-0.000958906425167 -0.0045099348829 0
-0.000545492926595 3.7838897569e-05 0
-1.69937533151e-05 -0.0020303181895 0
0.000577977281736 3.31302198516e-05 0
0.0016638777325 -0.00221551923373 0
0.00284358054642 -0.0117835494157 0
0.000229123189371 -0.0386458107905 0
0.000929500971572 -0.0191888249537 0
-0.00234431778595 -0.00105885315264 0
-0.00318233621499 -0.00783828124948 0
0.00406132601208 -0.0130302045239 0
0.00254131271003 -0.00456723801137 0
0.00255793857533 -0.00342781645009 0
-0.000938899066948 -0.0119190876454 0
0.000907215646408 -0.0297097126817 0
-0.000212053894447 -0.00330741328306 0
0.000450841567689 -0.000401803746556 0
-0.00305016303407 -0.00222524718467 0
-0.000823257764357 -0.0361399755269 0
-0.0027369412786 -0.00110143466642 0
0.00149977171105 -0.000833520005202 0
-0.000461016858998 -0.000814535088264 0
-0.000491238370178 -0.00013589151225 0
0.000528812067641 -0.000167223696238 0
0.00206683068729 -0.016309169367 0
-0.000411527299194 0.000378093797052 0
0.000445208714363 0.000370026863244 0
-0.00204335043243 -0.0216549648726 0
-0.000172842774156 -0.000398685394341 0
-0.0019276131424 -4.90817815453e-05 0
0.00195105718257 -5.4318734758e-05 0
0.00357386990825 -0.00303043746454 0
-0.000861513654581 -0.00901634553907 0
0.000507474861292 -0.00236777572697 0
-3.87681589508e-05 -0.00136509206641 0
0.00119331133815 -0.0215547128688 0
-0.00100781823734 -0.00203045352566 0
0.00232095990171 -0.0149258481507 0
-0.00239830286494 -0.0240612377293 0
-0.00398341690556 -0.0134261594664 0
-0.00225760395207 -0.0104941119761 0
-0.000543956530619 -0.0293720430304 0
-0.0006411738179 0.000534075956485 0
0.000673264567575 0.000524693521028 0
-0.00367386206928 -0.00479166853038 0
-0.000190554471427 -0.00295452067518 0
-0.000887910695303 -3.47620476408e-05 0
0.00232778722068 -0.0238476439277 0
0.000919872589965 -3.86968939904e-05 0
3.66685023744e-05 -0.00132928095595 0
0.000770212218844 -0.0315203090787 0
-0.00340943947049 -0.00261766728891 0
-0.00398499804209 -0.0118779731037 0
0.00296439883719 -0.00189081774233 0
-0.00190325020137 -0.0177710936507 0
-0.000632227872443 0.000298827648861 0
0.000664315363442 0.000291434181323 0
0.00303632790197 -0.00208789051403 0
0.00184770324997 -0.000220917712314 0
-0.00184174297429 -0.000218529545039 0
0.000351840096398 -0.0009950476628 0
0.000651006599563 -0.0267233819923 0
-0.00337041702049 -0.013979765235 0
0.00310492564778 -0.00280502031648 0
0.00349849179728 -0.00532803487152 0
-0.00197619351237 -0.000114398781331 0
0.00199196070092 -0.000120045914724 0
-0.00118454366841 -0.00114573964209 0
-0.00142407668375 -0.00137662734378 0