# vtk DataFile Version 2.0
Generated with Solid Solver
ASCII
DATASET UNSTRUCTURED_GRID
POINTS 856 float 
0.0 3.5 0.0
1.6 3.5 0.0
1.6 4.0 0.0
0.0 4.0 0.0
0.0695652173912 3.5 0.0
0.139130434782 3.5 0.0
0.208695652174 3.5 0.0
0.278260869565 3.5 0.0
0.347826086956 3.5 0.0
0.417391304347 3.5 0.0
0.486956521738 3.5 0.0
0.556521739129 3.5 0.0
0.62608695652 3.5 0.0
0.695652173911 3.5 0.0
0.765217391302 3.5 0.0
0.834782608694 3.5 0.0
0.904347826085 3.5 0.0
0.973913043477 3.5 0.0
1.04347826087 3.5 0.0
1.11304347826 3.5 0.0
1.18260869565 3.5 0.0
1.25217391304 3.5 0.0
1.32173913043 3.5 0.0
1.39130434783 3.5 0.0
1.46086956522 3.5 0.0
1.53043478261 3.5 0.0
1.6 3.56430812594 0.0
1.6 3.62270835268 0.0
1.6 3.6757434324 0.0
1.6 3.7239062376 0.0
1.6 3.76764438351 0.0
1.6 3.80736436404 0.0
1.6 3.84343531219 0.0
1.6 3.87619247117 0.0
1.6 3.90594026707 0.0
1.6 3.93295517284 0.0
1.6 3.95748825478 0.0
1.6 3.97976750982 0.0
1.58000000587 4.0 0.0
1.55999996633 4.0 0.0
1.54000002214 4.0 0.0
1.51999997198 4.0 0.0
1.50000000455 4.0 0.0
1.48000000216 4.0 0.0
1.45999997931 4.0 0.0
1.44000002484 4.0 0.0
1.41999997044 4.0 0.0
1.40000002096 4.0 0.0
1.37999999963 4.0 0.0
1.35999999626 4.0 0.0
1.34000002179 4.0 0.0
1.31999997343 4.0 0.0
1.3000000318 4.0 0.0
1.27999998783 4.0 0.0
1.26000000202 4.0 0.0
1.24000001295 4.0 0.0
1.21999998074 4.0 0.0
1.20000003685 4.0 0.0
1.17999998163 4.0 0.0
1.16000001473 4.0 0.0
1.14000000469 4.0 0.0
1.11999999139 4.0 0.0
1.10000003625 4.0 0.0
1.07999997877 4.0 0.0
1.06000002802 4.0 0.0
1.04000000338 4.0 0.0
1.02000000764 4.0 0.0
1.00000002986 4.0 0.0
0.979999980237 4.0 0.0
0.960000035522 4.0 0.0
0.939999990881 4.0 0.0
0.920000014619 4.0 0.0
0.900000017903 4.0 0.0
0.879999986222 4.0 0.0
0.860000037278 4.0 0.0
0.839999982352 4.0 0.0
0.820000022783 4.0 0.0
0.800000000002 4.0 0.0
0.779999977222 4.0 0.0
0.760000017652 4.0 0.0
0.739999962726 4.0 0.0
0.720000013782 4.0 0.0
0.699999982101 4.0 0.0
0.679999985385 4.0 0.0
0.660000009123 4.0 0.0
0.639999964482 4.0 0.0
0.620000019766 4.0 0.0
0.599999970141 4.0 0.0
0.57999999236 4.0 0.0
0.559999996622 4.0 0.0
0.539999971983 4.0 0.0
0.520000021235 4.0 0.0
0.499999963756 4.0 0.0
0.480000008612 4.0 0.0
0.459999995315 4.0 0.0
0.439999985272 4.0 0.0
0.420000018371 4.0 0.0
0.39999996315 4.0 0.0
0.380000019261 4.0 0.0
0.359999987052 4.0 0.0
0.339999997986 4.0 0.0
0.320000012172 4.0 0.0
0.299999968206 4.0 0.0
0.280000026575 4.0 0.0
0.259999978213 4.0 0.0
0.240000003742 4.0 0.0
0.220000000371 4.0 0.0
0.199999979041 4.0 0.0
0.180000029557 4.0 0.0
0.159999975162 4.0 0.0
0.140000020694 4.0 0.0
0.119999997846 4.0 0.0
0.0999999954514 4.0 0.0
0.0800000280232 4.0 0.0
0.0599999778571 4.0 0.0
0.0400000336732 4.0 0.0
0.0199999941324 4.0 0.0
0.0 3.97976750982 0.0
0.0 3.95748825478 0.0
0.0 3.93295517284 0.0
0.0 3.90594026707 0.0
0.0 3.87619247117 0.0
0.0 3.84343531219 0.0
0.0 3.80736436404 0.0
0.0 3.76764438351 0.0
0.0 3.7239062376 0.0
0.0 3.6757434324 0.0
0.0 3.62270835268 0.0
0.0 3.56430812594 0.0
0.249757905714 3.75212552678 0.0
1.35000000902 3.74954526597 0.0
0.488714190926 3.75947467509 0.0
0.727445026698 3.75983525744 0.0
0.962900270309 3.76055270856 0.0
1.17161197633 3.81755162829 0.0
0.130754031542 3.86878251069 0.0
1.46924596846 3.86878251069 0.0
0.369913852535 3.84868154079 0.0
0.603236233099 3.84763103091 0.0
0.843402107212 3.84736931152 0.0
1.05041705507 3.86611282467 0.0
0.250539323282 3.87785527135 0.0
1.34882231626 3.87787871523 0.0
0.468661896861 3.89189320321 0.0
0.704258117309 3.89639128976 0.0
0.94963922804 3.89654080835 0.0
1.25000000748 3.89875296068 0.0
1.12879020517 3.91059303421 0.0
0.548928478218 3.91905583534 0.0
0.7889268651 3.91906062813 0.0
0.0712526194949 3.93011432704 0.0
1.52874738051 3.93011432704 0.0
1.4740071133 3.74293106904 0.0
0.125992886699 3.74293106904 0.0
0.329956761073 3.92118145982 0.0
1.09412206522 3.66725831207 0.0
0.190000004299 3.92542384899 0.0
1.41098423528 3.92728100222 0.0
0.629999992124 3.92414139091 0.0
0.87000001175 3.92414140592 0.0
0.853391941071 3.71944243214 0.0
0.610032822379 3.72536074396 0.0
0.41090315692 3.92892991009 0.0
0.370435019193 3.7251305208 0.0
1.01000001875 3.93130199947 0.0
1.22823348571 3.68694249365 0.0
1.18894423177 3.93487447818 0.0
1.31063576122 3.93502724255 0.0
0.129927636183 3.94112156482 0.0
1.47007236382 3.94112156482 0.0
1.07646504896 3.76194504855 0.0
1.07000000339 3.94017719684 0.0
0.270000002394 3.93875928556 0.0
1.26759839792 3.80243333593 0.0
0.770332946246 3.83880063275 0.0
0.530342720064 3.83880306325 0.0
0.189898092614 3.63474333735 0.0
1.4101772205 3.6313147556 0.0
0.942883893479 3.62966700486 0.0
0.510631148905 3.62429064243 0.0
0.754670889573 3.63369080225 0.0
0.489999986184 3.94463854908 0.0
0.732500655853 3.9452729887 0.0
0.193627936713 3.81528931126 0.0
1.40183871842 3.81461096917 0.0
0.928721275957 3.94715071018 0.0
0.0604617896557 3.86281267064 0.0
1.53953821034 3.86281267065 0.0
1.25036152032 3.94913766834 0.0
0.30096552553 3.81141484704 0.0
0.297089357677 3.66359682597 0.0
0.394212311705 3.61316974741 0.0
0.831051681923 3.94633984116 0.0
0.592085081305 3.94901138542 0.0
0.669405291514 3.95495209798 0.0
1.3611855791 3.94637621082 0.0
0.928496698914 3.82436133158 0.0
0.444093171593 3.8271987226 0.0
0.683378885111 3.8234871366 0.0
0.372430737197 3.95235208784 0.0
1.19348789949 3.87019408468 0.0
1.15124363553 3.95467023547 0.0
0.229287653728 3.96038323295 0.0
0.646635519079 3.61231195482 0.0
0.986819459779 3.84973028271 0.0
1.11214815433 3.84770266014 0.0
1.50610225987 3.6604664246 0.0
0.0938977401332 3.6604664246 0.0
0.531976760298 3.96138656711 0.0
0.451361041931 3.96112773652 0.0
0.771976835888 3.96138886125 0.0
1.53311213884 3.79435404356 0.0
0.066887861162 3.79435404356 0.0
0.970836553066 3.9620233382 0.0
0.311702426505 3.96111572975 0.0
1.31698094247 3.6658628839 0.0
1.11177843379 3.95948388532 0.0
1.15003411964 3.72957279566 0.0
0.890058924798 3.96133576813 0.0
0.169108880648 3.96040269401 0.0
1.42850737314 3.96465656678 0.0
0.0426347993992 3.9610175717 0.0
1.5573652006 3.9610175717 0.0
1.28993057938 3.85776473604 0.0
1.34652710411 3.82072629166 0.0
0.897316840472 3.87585124602 0.0
0.814484972147 3.79171515708 0.0
0.573290986674 3.7879873938 0.0
1.02164717476 3.69631051635 0.0
0.41798215839 3.87594988344 0.0
1.18469655214 3.6045863568 0.0
0.657426542805 3.87734841349 0.0
0.0893439701605 3.9657484063 0.0
1.51065602984 3.9657484063 0.0
0.850202761783 3.61862953305 0.0
0.185775988195 3.86980628439 0.0
1.41422401181 3.86980628439 0.0
0.305957202498 3.87340573583 0.0
0.629999992124 3.96272981278 0.0
0.686026569054 3.68766751472 0.0
1.03220081924 3.96436031967 0.0
0.445441337222 3.69456289967 0.0
1.33308537187 3.96770341358 0.0
1.0249206042 3.60512275769 0.0
0.128645746764 3.81165411571 0.0
1.47135425324 3.81165411571 0.0
1.29077706219 3.96625078806 0.0
1.21302440104 3.96491551313 0.0
0.373320303365 3.89968789902 0.0
0.409457647309 3.96502881891 0.0
1.39076199588 3.96614348387 0.0
1.2156032112 3.76624353786 0.0
0.383301616321 3.78976397621 0.0
0.593246012246 3.8948346816 0.0
0.833004203108 3.89475034107 0.0
0.187583903859 3.70688411961 0.0
1.41241609614 3.70688411961 0.0
1.08573330585 3.89673930733 0.0
1.04303343403 3.81530385578 0.0
0.103644791029 3.90516202075 0.0
1.49635520897 3.90516202075 0.0
1.23586605501 3.85112068621 0.0
0.921814270996 3.70213058021 0.0
0.532219762185 3.7029333087 0.0
1.28217045716 3.7375098981 0.0
0.779621693208 3.70806977531 0.0
0.998890529268 3.88397615296 0.0
0.659406618131 3.76469373474 0.0
0.230043799244 3.91599372373 0.0
1.53690667654 3.72637971331 0.0
0.0630933234627 3.72637971331 0.0
0.153148105836 3.90639761309 0.0
1.4478092366 3.90500627713 0.0
0.512139854501 3.90538519137 0.0
0.750930702019 3.90340708 0.0
0.0409150717909 3.90046251393 0.0
1.55908492821 3.90046251393 0.0
0.702096631597 3.96656725638 0.0
0.246204062466 3.82734823738 0.0
0.872012730916 3.80079945556 0.0
0.313419524246 3.75328100976 0.0
1.26305184675 3.57725747237 0.0
1.04341944162 3.90846795586 0.0
0.697725469476 3.93030230037 0.0
0.27003033309 3.96477332623 0.0
0.632456188669 3.80120134001 0.0
0.55988813035 3.96676596088 0.0
0.798125231733 3.9668778541 0.0
0.861599835739 3.96514225679 0.0
0.130196681328 3.96566148827 0.0
1.46980331867 3.96566148827 0.0
0.337465698618 3.96873835045 0.0
1.10690030388 3.57445060302 0.0
1.07038768144 3.96631210642 0.0
0.201908835349 3.96783542832 0.0
1.17640357301 3.96795841043 0.0
0.482502283815 3.8454083814 0.0
1.37723451734 3.90442225885 0.0
0.722497886517 3.84543272537 0.0
0.254749007352 3.57960328731 0.0
0.449206209982 3.91785378051 0.0
0.907803563184 3.91575967116 0.0
0.997592319531 3.96832081731 0.0
1.3597087328 3.59165409162 0.0
0.797785363131 3.87112617582 0.0
0.557788209884 3.87112741711 0.0
0.133223775006 3.57024633267 0.0
1.46673023696 3.57019175074 0.0
0.296361477075 3.90524448543 0.0
1.29555045611 3.90092076583 0.0
1.11951450862 3.79592056714 0.0
0.341558640376 3.57546927501 0.0
0.974255514016 3.92370320024 0.0
0.664786082443 3.91707165091 0.0
1.1442561544 3.86460464827 0.0
0.430695849932 3.74774845865 0.0
1.22439218721 3.92431164104 0.0
0.917330800791 3.76752811157 0.0
0.0995806821614 3.83759752714 0.0
1.50041931784 3.83759752714 0.0
0.586492545959 3.6571718064 0.0
1.16809690663 3.90376349956 0.0
0.490525946651 3.9687439861 0.0
0.170108846494 3.77025381333 0.0
0.726723612771 3.96611364881 0.0
1.42998397347 3.77014833166 0.0
1.55978981314 3.82099569701 0.0
0.0402101868575 3.82099569701 0.0
1.10043652243 3.92805072974 0.0
1.34111814411 3.91924529479 0.0
1.27430066613 3.93505265881 0.0
0.56431092584 3.57086686051 0.0
0.930516510487 3.96969091611 0.0
1.17713743504 3.67180033503 0.0
0.801256410508 3.5635758738 0.0
1.37979186382 3.84566323689 0.0
1.02277822921 3.7577258162 0.0
0.252009847995 3.68167957306 0.0
0.0497138210057 3.58866012032 0.0
1.55028617899 3.58866012032 0.0
0.466046622144 3.57331739513 0.0
0.343019074867 3.81481221655 0.0
0.0645235269233 3.96909610548 0.0
1.53547647308 3.96909610548 0.0
0.0310141903995 3.92955737583 0.0
[...]
POINT_DATA 856
VECTORS Displacement float
0.0 0.0 0
0.0 0.0 0
0.00816434562548 -0.00154099113509 0
-0.00812246589468 -0.00153323566058 0
0.0 0.0 0
0.0 0.0 0
0.0 0.0 0
0.0 0.0 0
0.0 0.0 0
0.0 0.0 0
0.0 0.0 0
0.0 0.0 0
0.0 0.0 0
0.0 0.0 0
0.0 0.0 0
0.0 0.0 0
0.0 0.0 0
0.0 0.0 0
0.0 0.0 0
0.0 0.0 0
0.0 0.0 0
0.0 0.0 0
0.0 0.0 0
0.0 0.0 0
0.0 0.0 0
0.0 0.0 0
0.00633050431936 -0.00462326575759 0
0.010744524888 -0.00586625519048 0
0.0137146407812 -0.00578633032913 0
0.015092718283 -0.00506463800052 0
0.0154334024674 -0.00420545205588 0
0.0150584206614 -0.00334241309295 0
0.0141515014047 -0.00265925709454 0
0.0131051363107 -0.00214207828394 0
0.0119394359928 -0.00179744169331 0
0.0108205226262 -0.00163176769639 0
0.00981108170026 -0.00155785644974 0
0.00893154660093 -0.00153909181272 0
0.00816632010728 -0.00229234433267 0
0.00815813775726 -0.00300961661248 0
0.00811479969454 -0.00369791590501 0
0.00801802638075 -0.00436833392843 0
0.00785910810326 -0.00504592874145 0
0.00763474136242 -0.0057657289713 0
0.00732831191455 -0.00653087037318 0
0.00696240846307 -0.00740116223463 0
0.00650716327948 -0.00837721227439 0
0.00601226553726 -0.00951030720469 0
0.0054289862176 -0.0107955390094 0
0.00480280167843 -0.0123081743529 0
0.00409059198263 -0.0140564897553 0
0.00335210794253 -0.0161106548628 0
0.00263415341892 -0.0184586975646 0
0.00180962486978 -0.0212129949659 0
0.00105809007697 -0.0243950097045 0
0.000394571112076 -0.0281144549248 0
-0.000224510973708 -0.0324636978513 0
-0.000779449319178 -0.0377341955299 0
-0.000807604639584 -0.044177685802 0
0.00028040157597 -0.0528447837626 0
0.00161345681611 -0.0615343933742 0
0.00291202023908 -0.0696581586261 0
0.00421173148394 -0.0772769248874 0
0.00523579504583 -0.0844538033509 0
0.00613885366727 -0.0911583407941 0
0.0067481126206 -0.0974318364455 0
0.0071833733591 -0.103242819714 0
0.00736447542088 -0.108598480374 0
0.00736769262217 -0.113479711346 0
0.00715430149321 -0.117885074166 0
0.00674495100108 -0.121807950182 0
0.00618578518151 -0.125228082399 0
0.00547133339205 -0.128138749746 0
0.00461487900228 -0.130537725901 0
0.00364857264842 -0.132412947447 0
0.00259610457984 -0.13376129243 0
0.00144145243258 -0.134569214517 0
0.000190208160353 -0.134800022314 0
-0.00116178611641 -0.134575393728 0
-0.00238828932332 -0.133773758936 0
-0.00348455153983 -0.132432002967 0
-0.004478753624 -0.130556813498 0
-0.00535448931399 -0.128155994419 0
-0.00607870131762 -0.125242590781 0
-0.00664331741834 -0.121822725156 0
-0.00705200691405 -0.117905819829 0
-0.00729087754842 -0.113498989536 0
-0.00727776572106 -0.108623465407 0
-0.00712396862896 -0.103264099955 0
-0.00669775571287 -0.0974520748441 0
-0.00607779080715 -0.0911821674775 0
-0.00521973441111 -0.0844642719531 0
-0.00419874160343 -0.0772879045543 0
-0.00288245316575 -0.0696787838744 0
-0.00157866600807 -0.0615516727953 0
-0.000210273967968 -0.0528664695066 0
0.000753913978351 -0.0443040808932 0
0.000822559055184 -0.0377456618468 0
0.00027923026862 -0.0325277654805 0
-0.000356616746603 -0.0281384233442 0
-0.0010612128481 -0.0244247741258 0
-0.00185348542727 -0.0212261704848 0
-0.00263141557608 -0.0184899481443 0
-0.00334745568937 -0.0161220791985 0
-0.00409011240106 -0.0140837784881 0
-0.00474807582011 -0.0123303111261 0
-0.00539078817358 -0.0108126894863 0
-0.00597601819417 -0.00952654520893 0
-0.00646698420265 -0.00839360414208 0
-0.00691936694696 -0.00741528730263 0
-0.00728501641237 -0.00654030072807 0
-0.00759247677285 -0.00577201825243 0
-0.0078166077526 -0.00505016880147 0
-0.00797562890034 -0.00436979345231 0
-0.0080726329274 -0.00369686271957 0
-0.00811614637984 -0.00300625418694 0
-0.00812442570052 -0.00228679388537 0
-0.00889193007689 -0.00153135165914 0
-0.00977395590903 -0.00155022719627 0
-0.0107859322197 -0.00162430212852 0
-0.0119072962495 -0.00179005215893 0
-0.0130755794609 -0.00213439382116 0
-0.0141249485434 -0.00265097706653 0
-0.0150350388159 -0.00333319454482 0
-0.0154145891757 -0.0041947574822 0
-0.0150801298821 -0.00505368995451 0
-0.0137081971769 -0.00577754262486 0
-0.0107392908645 -0.00586122540319 0
-0.00632313130831 -0.00461925656114 0
-0.0177055817924 -0.0105398582461 0
0.0176721158468 -0.0104017843769 0
-0.0190108096474 -0.0371672031128 0
-0.00571616165329 -0.0604736861208 0
0.0122663196684 -0.0548463341336 0
0.0200650501958 -0.0350673457476 0
-0.0137609577455 -0.00591692533476 0
0.0137863942719 -0.00591796779372 0
-0.0185221195059 -0.027096914213 0
-0.0143699058831 -0.0716435309981 0
0.00357705988428 -0.0861605941593 0
0.016678631606 -0.0664180962938 0
-0.0144315678058 -0.0126096839522 0
0.0144723229249 -0.0126465760847 0
-0.0173772638963 -0.0520971540308 0
-0.0070787382996 -0.0973206488682 0
0.010671405021 -0.0911179296006 0
0.0149270977474 -0.025318140673 0
0.0160790925927 -0.0552012211007 0
-0.0141541766451 -0.0772806413905 0
-0.000751890813384 -0.108572133279 0
-0.0109331498607 -0.00404939717267 0
0.0109666328746 -0.00404932009275 0
0.0159541825655 -0.00521882227517 0
-0.015934169026 -0.00522399574729 0
-0.0123127185792 -0.022285854486 0
0.0151661111196 -0.0247252196974 0
-0.0109647322483 -0.00859439413204 0
0.0108910249703 -0.00851266369474 0
-0.0108143667147 -0.0954140399518 0
0.00503722411372 -0.107728403135 0
0.00403110990125 -0.0504013826027 0
-0.0131621249811 -0.0442781497041 0
-0.0134453767256 -0.039720032535 0
-0.0189404318816 -0.0191898661477 0
0.0122041589847 -0.0894850843809 0
0.0174767790943 -0.0162731089626 0
0.0127062450511 -0.0399674835429 0
0.0103648523486 -0.0167725300028 0
-0.0102440810163 -0.00595808123594 0
0.0102780297782 -0.00594790545308 0
0.0180809548001 -0.0422596044238 0
0.0129232422496 -0.0766240087325 0
-0.00994537341268 -0.0146623416097 0
0.0190880958566 -0.019621346565 0
-0.00236618004175 -0.0839924656721 0
-0.0179426809082 -0.0572631155285 0
-0.0123471001666 -0.00462450309685 0
0.0121964426407 -0.00454333671283 0
0.00743961692181 -0.0260789379647 0
-0.0123960086684 -0.0182679054086 0
-0.00256966369433 -0.029266698302 0
-0.0126814548459 -0.0655761994555 0
-0.00447840106387 -0.114392609044 0
-0.0161851291171 -0.00831176682411 0
0.0163113902776 -0.00853688976294 0
0.0081012550925 -0.108325274593 0
-0.0137426959945 -0.00396226204397 0
0.0137717882775 -0.00396368280923 0
0.00924530713205 -0.0258224174421 0
-0.0182631095909 -0.0164102714793 0
-0.0155653043936 -0.00979537065593 0
-0.0127807044143 -0.0111171707168 0
0.0022127210605 -0.116715820518 0
-0.0110078901634 -0.0942283751484 0
-0.0078509376704 -0.110287183686 0
0.009338989152 -0.0118763251502 0
0.0102077380286 -0.0741122460091 0
-0.0199252077718 -0.0389416575802 0
-0.00926496272459 -0.074974925032 0
-0.00916387244513 -0.0305902149664 0
0.0182743439548 -0.0352832015102 0
0.0108437954665 -0.0531316939161 0
-0.00824565544616 -0.0111959748588 0
-0.00723960354315 -0.0219419361617 0
0.0138463706097 -0.0736998599339 0
0.0190514880128 -0.0503929631879 0
0.013121383459 -0.0038563223069 0
-0.0131179791225 -0.00385055330256 0
-0.0107433780433 -0.0813470604783 0
-0.00993265785942 -0.0546381441941 0
-0.00177955817051 -0.121652564889 0
0.0155860919833 -0.00438742450251 0
-0.0155618401376 -0.00438376439188 0
0.00928331579104 -0.105384876165 0
-0.00740478886638 -0.0197248517381 0
0.0155117469397 -0.00918303025821 0
0.0108281702254 -0.0672485722869 0
0.0190227180024 -0.0282035980741 0
0.00574932767226 -0.117388529685 0
-0.00891633474202 -0.00762346274854 0
0.00867279697712 -0.00774107762374 0
-0.00962029070909 -0.00309781638623 0
0.00965770690348 -0.00310092844451 0
0.0167892404377 -0.0185357325694 0
0.0170783634045 -0.012194445369 0
0.00754037214599 -0.0912413865318 0
0.00121226651641 -0.0707856444155 0
-0.0162997894727 -0.0539376388535 0
0.0139608255976 -0.0356381973138 0
-0.0180709836976 -0.0381702256345 0
0.0118818585335 -0.0111094138324 0
-0.0105683336014 -0.086842779152 0
-0.00927365355432 -0.00461714651816 0
0.00931177923844 -0.00461464856437 0
0.00261862753445 -0.025499316462 0
-0.0140979406409 -0.00821043749326 0
0.0141206307604 -0.00819238462899 0
-0.0157534358495 -0.0183542257845 0
-0.00912929349075 -0.105712352051 0
-0.00770696480898 -0.0404035410698 0
0.0103581572842 -0.0919026401057 0
-0.0176823175544 -0.0234435793874 0
0.00712557659432 -0.0144527208136 0
0.00941028796683 -0.0180176164494 0
-0.0155910246149 -0.00572651601242 0
0.0156291996997 -0.00572817409 0
0.00679947797043 -0.0193889296044 0
0.00733106519473 -0.0340478122298 0
-0.0154716030971 -0.0298172614026 0
-0.00793434490355 -0.0404552626001 0
0.008095611887 -0.00983452113107 0
0.0199274770042 -0.0239389765631 0
-0.0200128325848 -0.0255997399171 0
-0.013695501234 -0.0813451414629 0
0.00257992708424 -0.100642535917 0
-0.0158330155064 -0.00637940652264 0
0.0158200102883 -0.00634357278143 0
0.0164575024863 -0.0643944982891 0
0.0171087272263 -0.0573098334383 0
-0.0120746555205 -0.00504797953867 0
0.012104866282 -0.00504564835913 0
0.0183727661675 -0.0262880907676 0
0.00850358186349 -0.043570530938 0
-0.0160009633394 -0.0328547254492 0
0.0186450606776 -0.0150952268828 0
-0.00152230724741 -0.0480264304448 0
0.0137660527662 -0.0801512310062 0
-0.0107863528123 -0.0576574601524 0
-0.0116734003205 -0.0111260679558 0
0.0153863461609 -0.00445726002348 0
-0.0153732180702 -0.00445198240544 0
-0.0120530905375 -0.00680615036012 0
0.0121598159913 -0.00676090910896 0
-0.0159390488539 -0.0654202928145 0
-0.00364319737529 -0.102637500024 0
-0.0122182228036 -0.00323365560437 0
0.0122499301373 -0.00323680208454 0
-0.00592626846567 -0.11810968759 0
-0.0167253932203 -0.0117945209 0
0.00587235583015 -0.0716730950387 0
-0.0188230188629 -0.0154923616615 0
0.00926385759981 -0.00593550619414 0
0.0146058552599 -0.0768384031591 0
-0.00692250644127 -0.106689223515 0
-0.00736154641779 -0.0147689804706 0
-0.0128977952886 -0.0641576145015 0
-0.0101185895471 -0.0903272601556 0
-2.99040414398e-05 -0.12387122592 0
0.00405060786347 -0.121097822101 0
-0.0089992215234 -0.0060228435309 0
0.00903826372407 -0.00601365138061 0
-0.00625862326649 -0.0237286925782 0
0.00849852077211 -0.0103476140234 0
0.0102096875386 -0.0815376839993 0
-0.00804214840248 -0.00941268504978 0
0.0078272412547 -0.0451756533876 0
-0.0191519758909 -0.0488526407934 0
0.0124694460234 -0.0105469554987 0
-0.006183100446 -0.0839458467948 0
-0.008766689392 -0.00406392494602 0
-0.0153685183649 -0.0497864577567 0
0.00766025556865 -0.101789497649 0
0.00958950458597 -0.101327816813 0
0.00971294227428 -0.00431961102691 0
-0.000126973764521 -0.0939377685457 0
-0.0160849969247 -0.0690244069272 0
-0.00675593612225 -0.00206700468749 0
0.00676439028061 -0.00206771155758 0
-0.0132218000184 -0.0175178165139 0
0.0137363986213 -0.0184495877404 0
0.019606918502 -0.0413239072234 0
-0.00909281293192 -0.00594130006917 0
0.011118635527 -0.0945439141344 0
-0.00919451591265 -0.0988145546206 0
0.0188686693901 -0.0456230530462 0
-0.0195825302055 -0.0280487815165 0
0.0130078433182 -0.0308563633677 0
0.00917600470614 -0.060129093027 0
-0.0147372334235 -0.00499180240682 0
0.0147620148388 -0.00499031134385 0
-0.0117853785785 -0.0284748952177 0
0.0163074569575 -0.043685045292 0
-0.00937777470468 -0.0694006562397 0
-0.0164859257667 -0.0068119615533 0
-0.0045799918971 -0.120475674408 0
0.0165105238427 -0.00680446820412 0
0.0149482656173 -0.00381605175461 0
-0.0149235070966 -0.00381135137582 0
0.0144694905104 -0.0659076320376 0
0.0116230087256 -0.0135258411626 0
0.010709600776 -0.02167392521 0
-0.00713462946571 -0.0116989316215 0
0.00750379150324 -0.114606888301 0
0.0167459909523 -0.0188876545947 0
1.04621128843e-05 -0.0131009120655 0
0.0156199726794 -0.0100812397467 0
0.0157006885298 -0.0479769150774 0
-0.015769024102 -0.00836205720423 0
-0.00802854764929 -0.00302141440229 0
0.00803612189484 -0.00302632839969 0
-0.00888700394377 -0.00921387484509 0
-0.0191457434687 -0.0215378469849 0
-0.00923684398886 -0.00381989575222 0
0.00927524974536 -0.00382055157604 0
-0.0109614293639 -0.00278406738401 0
0.0109955860605 -0.00278831765568 0
-0.0034123538874 -0.0144496651241 0
-0.0159365144959 -0.0222832506875 0
-0.0163433607321 -0.0139263347196 0
-0.0183399676886 -0.0463624387829 0
-0.00280667986808 -0.0683790821622 0
0.00329806845727 -0.0148933479617 0
0.0183633880111 -0.0142430431 0
-0.0150314950174 -0.00695502832304 0
0.00513669623499 -0.0258824895574 0
0.0150374133139 -0.00680041501479 0
0.0198592762097 -0.0259911230948 0
0.0114168367881 -0.0800337686914 0
0.00725875311933 -0.0636709988277 0
0.000582059780657 -0.0842563918319 0
-0.0165140101132 -0.0636057876146 0
0.00706562388787 -0.0124591315711 0
-0.0106503702086 -0.00493973845212 0
0.0106837116448 -0.00493633690946 0
-0.00918379243769 -0.103290181027 0
-0.0078789334925 -0.112954538599 0
0.0182437240111 -0.0555622375935 0
-0.0120772580044 -0.00413593260903 0
0.0121088664001 -0.00413515780835 0
-0.0150516344715 -0.00480447496445 0
0.0150586361435 -0.00480266296048 0
0.00201842325512 -0.128589979492 0
0.00508749285761 -0.0979755990157 0
-0.00569761307326 -0.0340597333663 0
-0.00917296626362 -0.00254226305638 0
0.00921173486002 -0.00254707706623 0
0.0126789391622 -0.0639376268703 0
-0.0121677423315 -0.0859194108663 0
0.00559855528282 -0.0170199350317 0
-0.0146558034351 -0.010127253736 0
0.0175052248143 -0.0321348155859 0
-0.0105589892884 -0.00692618942055 0
0.0156005534845 -0.03652733404 0
0.0107527805216 -0.00701748066445 0
-0.00615046870756 -0.0476618196623 0
0.0072466221939 -0.0809060164541 0
0.0132012986099 -0.0587773018937 0
-0.0116859840871 -0.0745733895983 0
0.0054623309701 -0.0126781145008 0
-0.0195181953209 -0.0331325371406 0
-0.0126624940781 -0.00945591120176 0
0.016366145237 -0.00828145636615 0
0.00753696807548 -0.0087703400528 0
-0.0178815434521 -0.0584943810267 0
-0.00394750790021 -0.0922205776344 0
-0.0196789318567 -0.0423583096937 0
-0.00629551896176 -0.0130599338289 0
-0.0130310138548 -0.0847068572267 0
0.00116169666755 -0.110144500466 0
-0.00644658646204 -0.071749538383 0
-0.0119176615322 -0.0268405481815 0
-0.00690058858151 -0.116520389341 0
-0.00850537947948 -0.0864546418593 0
-0.0133005371552 -0.00325252061371 0
0.0133301127472 -0.00325669309184 0
0.0127397437369 -0.0835983277818 0
0.0116376882778 -0.0422378430818 0
0.00700902036896 -0.00249587089415 0
-0.017565188761 -0.0220060584786 0
-0.00549402330129 -0.0169598122047 0
-0.0171638577792 -0.00982849949061 0
-0.0123806449706 -0.0132364783375 0
-0.016545729922 -0.0421301142454 0
-0.0189043173746 -0.0444981952404 0
-0.0162138568307 -0.014416450485 0
-0.00662978012454 -0.0023710406872 0
-0.00686951713216 -0.0638435143495 0
-0.00805589028264 -0.077690310983 0
-0.00310603151684 -0.126458008375 0
0.0177694956534 -0.0548384665267 0
-0.0135691345418 -0.00479568397063 0
0.0136003693551 -0.00479169372879 0
0.013958876645 -0.00432427343928 0
-0.0139526724813 -0.0043181135703 0
0.0172576184938 -0.0098602909416 0
-0.000357047767231 -0.0591219373895 0
0.00779228045059 -0.114456904447 0
-0.00812179138689 -0.00681332769456 0
0.0081345473191 -0.00684454263833 0
-0.0180761564218 -0.0145569410581 0
-0.00527806693826 -0.0283081204185 0
0.00638149722301 -0.120751036847 0
0.00973565751369 -0.0101062878229 0
-0.013656414912 -0.0711746296535 0
-0.0035075437318 -0.11069899093 0
0.00828876046407 -0.0774529495951 0
-0.00852068864994 -0.00534793872907 0
0.00856069711368 -0.00534214091574 0
0.014528008576 -0.049899949654 0
0.0181325245954 -0.0159830677114 0
-0.00950357331085 -0.0973000987031 0
0.010960425659 -0.029256612368 0
0.014555768626 -0.0104972261182 0
0.0169138180188 -0.030044591404 0
0.00880409135367 -0.0899914342562 0
-0.0137743706783 -0.016542794605 0
0.0139011451607 -0.0146960022554 0
-0.0123389881303 -0.082991556706 0
-0.000546629525057 -0.116189888321 0
-0.00962909339822 -0.00968427294433 0
-0.00534705093476 -0.10586235229 0
-0.0108119839069 -0.01729854735 0
0.0161208125022 -0.0146499323552 0
0.00159253048221 -0.0405069665631 0
0.0169676289877 -0.00798386941069 0
0.00476656012505 -0.0221014835218 0
-0.00501120061772 -0.0476702922042 0
0.0153644448116 -0.0711089115655 0
-0.0174964569663 -0.0299381143522 0
-0.015192962928 -0.0575818748506 0
0.00425564942744 -0.0305060081418 0
0.0127829945392 -0.0090070038576 0
-0.0169669994701 -0.00801311770141 0
0.00502566103726 -0.040192748168 0
0.00653989684422 -0.0547326919642 0
-0.00540725065405 -0.0276082578753 0
0.0154514032642 -0.00399969860298 0
-0.0154290386909 -0.0039930921786 0
0.00977935143086 -0.0991216337933 0
0.0177508471715 -0.0597503421375 0
-0.0113244839507 -0.0454250553771 0
0.0198527846657 -0.0291282370185 0
-0.0130990089797 -0.00616854047384 0
-0.00694381362519 -0.0105937444884 0
-0.00682868285714 -0.0052496375377 0
0.00376270832318 -0.114947208037 0
-0.0105016565095 -0.0981656022449 0
-0.00918607262885 -0.104022243172 0
-0.00507880391971 -0.0211563406141 0
-0.0159095499568 -0.0421449373813 0
-0.00957282304135 -0.00537082763951 0
-0.00955273694037 -0.0226754373372 0
0.00960999930737 -0.0053648492188 0
0.0168898845705 -0.0235755286287 0
-0.00852601642913 -0.0894130824707 0
-0.00109067971275 -0.127195549276 0
0.0109370925592 -0.096427885984 0
-0.017972366239 -0.0130778611341 0
-0.0106691566726 -0.0338796356872 0
0.0150303722101 -0.0622178966015 0
0.0194017719829 -0.03831619022 0
0.0195101809553 -0.0307367119609 0
0.011090118042 -0.0850075368247 0
0.00694842555282 -0.109556488997 0
-0.0125167257407 -0.0336607070829 0
0.00925171410189 -0.00874921447486 0
-0.019590612149 -0.0201396255319 0
0.00462226037134 -0.124831550242 0
-0.0176869277252 -0.0115466810739 0
0.00707102607709 -0.00531771636666 0
-0.0101045577823 -0.0123525543337 0
-0.00936085956511 -0.00664002297036 0
0.00946067855582 -0.006854160885 0
0.006018400448 -0.0611963699184 0
-0.00873393710071 -0.00326694198817 0
0.00877395941293 -0.00326947649855 0
0.00859265505078 -0.107784197361 0
-0.00757044996386 -0.00864546871391 0
-0.015907920087 -0.00501282614428 0
0.0159288771167 -0.00501304452571 0
0.0190113337825 -0.0223773885509 0
0.0115362506452 -0.0738644899679 0
0.0125336959401 -0.0256115867223 0
-0.00844690672242 -0.0169311260456 0
0.003369835605 -0.0770892837367 0
-0.00320180200345 -0.00849504470792 0
0.0138088246937 -0.0817762833239 0
-0.00897950696326 -0.094053913924 0
-0.0148832848597 -0.0639327788365 0
-0.0160863700336 -0.068663171891 0
-0.00190874044139 -0.100295236119 0
-0.0100634485533 -0.00238216484989 0
0.0100997823334 -0.00238748792503 0
-0.0200519599712 -0.0341151810308 0
0.0098659243454 -0.0306144464762 0
-0.0115688264516 -0.00587483432199 0
-0.00811523514357 -0.111103432519 0
0.0116103914475 -0.0058711839087 0
0.00817335485722 -0.016584262067 0
0.00334815980031 -0.107631189033 0
-0.0175902640759 -0.0187604383438 0
-0.0138547563402 -0.053647581577 0
0.0148283103019 -0.0132868721122 0
-0.0121512610844 -0.0897426782264 0
-0.0100203729788 -0.00372271434424 0
0.0100564794061 -0.00372376084142 0
0.0194625968489 -0.0191916130668 0
0.0126276726381 -0.00396794290545 0
-0.0126578348601 -0.00398175051324 0
0.00958251467368 -0.0138557652674 0
0.00191212689351 -0.0924335632085 0
-0.0150957957605 -0.0729355867814 0
0.0133281720199 -0.016248861476 0
0.0131594427909 -0.026283358244 0
-0.0147609121459 -0.00433104733708 0
0.0147692004528 -0.00433496530882 0
-0.0142235548943 -0.0152019188426 0
-0.00542595466893 -0.00688223299378 0
0.00657385431106 -0.0112458315089 0
0.017328412724 -0.0130846610862 0
0.00899505061774 -0.100253386706 0
-0.0134988763446 -0.00691281049415 0
-0.00937778642923 -0.0352725009656 0
0.0135141913651 -0.00688818695745 0
0.0183262799211 -0.0210754059463 0
-0.00513572043854 -0.124544867774 0
0.00974744395682 -0.0884048846646 0
0.00673450482565 -0.00630082459099 0
0.00478885579872 -0.0400388197518 0
0.0175584148458 -0.0112263335237 0
0.0118388059543 -0.0454129663632 0
0.0198888094292 -0.041939048166 0
0.0140735891359 -0.0105465613328 0
0.00619565737115 -0.00878657876198 0
-0.0177261724348 -0.031776009847 0
-0.00843023281636 -0.00467899633416 0
0.0193330659069 -0.0363359559996 0
0.00847090888784 -0.00467623896098 0
0.0162654829265 -0.0407668077764 0
-0.0128784283524 -0.0577811971356 0
-0.012396823217 -0.00793802936702 0
0.00782195495706 -0.0222731052454 0