# vtk DataFile Version 2.0
Generated with Solid Solver
ASCII
DATASET UNSTRUCTURED_GRID
POINTS 856 float 
0.0 3.5 0.0
1.6 3.5 0.0
1.6 4.0 0.0
0.0 4.0 0.0
0.0695652173912 3.5 0.0
0.139130434782 3.5 0.0
0.208695652174 3.5 0.0
0.278260869565 3.5 0.0
0.347826086956 3.5 0.0
0.417391304347 3.5 0.0
0.486956521738 3.5 0.0
0.556521739129 3.5 0.0
0.62608695652 3.5 0.0
0.695652173911 3.5 0.0
0.765217391302 3.5 0.0
0.834782608694 3.5 0.0
0.904347826085 3.5 0.0
0.973913043477 3.5 0.0
1.04347826087 3.5 0.0
1.11304347826 3.5 0.0
1.18260869565 3.5 0.0
1.25217391304 3.5 0.0
1.32173913043 3.5 0.0
1.39130434783 3.5 0.0
1.46086956522 3.5 0.0
1.53043478261 3.5 0.0
1.6 3.56430812594 0.0
1.6 3.62270835268 0.0
1.6 3.6757434324 0.0
1.6 3.7239062376 0.0
1.6 3.76764438351 0.0
1.6 3.80736436404 0.0
1.6 3.84343531219 0.0
1.6 3.87619247117 0.0
1.6 3.90594026707 0.0
1.6 3.93295517284 0.0
1.6 3.95748825478 0.0
1.6 3.97976750982 0.0
1.58000000587 4.0 0.0
1.55999996633 4.0 0.0
1.54000002214 4.0 0.0
1.51999997198 4.0 0.0
1.50000000455 4.0 0.0
1.48000000216 4.0 0.0
1.45999997931 4.0 0.0
1.44000002484 4.0 0.0
1.41999997044 4.0 0.0
1.40000002096 4.0 0.0
1.37999999963 4.0 0.0
1.35999999626 4.0 0.0
1.34000002179 4.0 0.0
1.31999997343 4.0 0.0
1.3000000318 4.0 0.0
1.27999998783 4.0 0.0
1.26000000202 4.0 0.0
1.24000001295 4.0 0.0
1.21999998074 4.0 0.0
1.20000003685 4.0 0.0
1.17999998163 4.0 0.0
1.16000001473 4.0 0.0
1.14000000469 4.0 0.0
1.11999999139 4.0 0.0
1.10000003625 4.0 0.0
1.07999997877 4.0 0.0
1.06000002802 4.0 0.0
1.04000000338 4.0 0.0
1.02000000764 4.0 0.0
1.00000002986 4.0 0.0
0.979999980237 4.0 0.0
0.960000035522 4.0 0.0
0.939999990881 4.0 0.0
0.920000014619 4.0 0.0
0.900000017903 4.0 0.0
0.879999986222 4.0 0.0
0.860000037278 4.0 0.0
0.839999982352 4.0 0.0
0.820000022783 4.0 0.0
0.800000000002 4.0 0.0
0.779999977222 4.0 0.0
0.760000017652 4.0 0.0
0.739999962726 4.0 0.0
0.720000013782 4.0 0.0
0.699999982101 4.0 0.0
0.679999985385 4.0 0.0
0.660000009123 4.0 0.0
0.639999964482 4.0 0.0
0.620000019766 4.0 0.0
0.599999970141 4.0 0.0
0.57999999236 4.0 0.0
0.559999996622 4.0 0.0
0.539999971983 4.0 0.0
0.520000021235 4.0 0.0
0.499999963756 4.0 0.0
0.480000008612 4.0 0.0
0.459999995315 4.0 0.0
0.439999985272 4.0 0.0
0.420000018371 4.0 0.0
0.39999996315 4.0 0.0
0.380000019261 4.0 0.0
0.359999987052 4.0 0.0
0.339999997986 4.0 0.0
0.320000012172 4.0 0.0
0.299999968206 4.0 0.0
0.280000026575 4.0 0.0
0.259999978213 4.0 0.0
0.240000003742 4.0 0.0
0.220000000371 4.0 0.0
0.199999979041 4.0 0.0
0.180000029557 4.0 0.0
0.159999975162 4.0 0.0
0.140000020694 4.0 0.0
0.119999997846 4.0 0.0
0.0999999954514 4.0 0.0
0.0800000280232 4.0 0.0
0.0599999778571 4.0 0.0
0.0400000336732 4.0 0.0
0.0199999941324 4.0 0.0
0.0 3.97976750982 0.0
0.0 3.95748825478 0.0
0.0 3.93295517284 0.0
0.0 3.90594026707 0.0
0.0 3.87619247117 0.0
0.0 3.84343531219 0.0
0.0 3.80736436404 0.0
0.0 3.76764438351 0.0
0.0 3.7239062376 0.0
0.0 3.6757434324 0.0
0.0 3.62270835268 0.0
0.0 3.56430812594 0.0
0.249757905714 3.75212552678 0.0
1.35000000902 3.74954526597 0.0
0.488714190926 3.75947467509 0.0
0.727445026698 3.75983525744 0.0
0.962900270309 3.76055270856 0.0
1.17161197633 3.81755162829 0.0
0.130754031542 3.86878251069 0.0
1.46924596846 3.86878251069 0.0
0.369913852535 3.84868154079 0.0
0.603236233099 3.84763103091 0.0
0.843402107212 3.84736931152 0.0
1.05041705507 3.86611282467 0.0
0.250539323282 3.87785527135 0.0
1.34882231626 3.87787871523 0.0
0.468661896861 3.89189320321 0.0
0.704258117309 3.89639128976 0.0
0.94963922804 3.89654080835 0.0
1.25000000748 3.89875296068 0.0
1.12879020517 3.91059303421 0.0
0.548928478218 3.91905583534 0.0
0.7889268651 3.91906062813 0.0
0.0712526194949 3.93011432704 0.0
1.52874738051 3.93011432704 0.0
1.4740071133 3.74293106904 0.0
0.125992886699 3.74293106904 0.0
0.329956761073 3.92118145982 0.0
1.09412206522 3.66725831207 0.0
0.190000004299 3.92542384899 0.0
1.41098423528 3.92728100222 0.0
0.629999992124 3.92414139091 0.0
0.87000001175 3.92414140592 0.0
0.853391941071 3.71944243214 0.0
0.610032822379 3.72536074396 0.0
0.41090315692 3.92892991009 0.0
0.370435019193 3.7251305208 0.0
1.01000001875 3.93130199947 0.0
1.22823348571 3.68694249365 0.0
1.18894423177 3.93487447818 0.0
1.31063576122 3.93502724255 0.0
0.129927636183 3.94112156482 0.0
1.47007236382 3.94112156482 0.0
1.07646504896 3.76194504855 0.0
1.07000000339 3.94017719684 0.0
0.270000002394 3.93875928556 0.0
1.26759839792 3.80243333593 0.0
0.770332946246 3.83880063275 0.0
0.530342720064 3.83880306325 0.0
0.189898092614 3.63474333735 0.0
1.4101772205 3.6313147556 0.0
0.942883893479 3.62966700486 0.0
0.510631148905 3.62429064243 0.0
0.754670889573 3.63369080225 0.0
0.489999986184 3.94463854908 0.0
0.732500655853 3.9452729887 0.0
0.193627936713 3.81528931126 0.0
1.40183871842 3.81461096917 0.0
0.928721275957 3.94715071018 0.0
0.0604617896557 3.86281267064 0.0
1.53953821034 3.86281267065 0.0
1.25036152032 3.94913766834 0.0
0.30096552553 3.81141484704 0.0
0.297089357677 3.66359682597 0.0
0.394212311705 3.61316974741 0.0
0.831051681923 3.94633984116 0.0
0.592085081305 3.94901138542 0.0
0.669405291514 3.95495209798 0.0
1.3611855791 3.94637621082 0.0
0.928496698914 3.82436133158 0.0
0.444093171593 3.8271987226 0.0
0.683378885111 3.8234871366 0.0
0.372430737197 3.95235208784 0.0
1.19348789949 3.87019408468 0.0
1.15124363553 3.95467023547 0.0
0.229287653728 3.96038323295 0.0
0.646635519079 3.61231195482 0.0
0.986819459779 3.84973028271 0.0
1.11214815433 3.84770266014 0.0
1.50610225987 3.6604664246 0.0
0.0938977401332 3.6604664246 0.0
0.531976760298 3.96138656711 0.0
0.451361041931 3.96112773652 0.0
0.771976835888 3.96138886125 0.0
1.53311213884 3.79435404356 0.0
0.066887861162 3.79435404356 0.0
0.970836553066 3.9620233382 0.0
0.311702426505 3.96111572975 0.0
1.31698094247 3.6658628839 0.0
1.11177843379 3.95948388532 0.0
1.15003411964 3.72957279566 0.0
0.890058924798 3.96133576813 0.0
0.169108880648 3.96040269401 0.0
1.42850737314 3.96465656678 0.0
0.0426347993992 3.9610175717 0.0
1.5573652006 3.9610175717 0.0
1.28993057938 3.85776473604 0.0
1.34652710411 3.82072629166 0.0
0.897316840472 3.87585124602 0.0
0.814484972147 3.79171515708 0.0
0.573290986674 3.7879873938 0.0
1.02164717476 3.69631051635 0.0
0.41798215839 3.87594988344 0.0
1.18469655214 3.6045863568 0.0
0.657426542805 3.87734841349 0.0
0.0893439701605 3.9657484063 0.0
1.51065602984 3.9657484063 0.0
0.850202761783 3.61862953305 0.0
0.185775988195 3.86980628439 0.0
1.41422401181 3.86980628439 0.0
0.305957202498 3.87340573583 0.0
0.629999992124 3.96272981278 0.0
0.686026569054 3.68766751472 0.0
1.03220081924 3.96436031967 0.0
0.445441337222 3.69456289967 0.0
1.33308537187 3.96770341358 0.0
1.0249206042 3.60512275769 0.0
0.128645746764 3.81165411571 0.0
1.47135425324 3.81165411571 0.0
1.29077706219 3.96625078806 0.0
1.21302440104 3.96491551313 0.0
0.373320303365 3.89968789902 0.0
0.409457647309 3.96502881891 0.0
1.39076199588 3.96614348387 0.0
1.2156032112 3.76624353786 0.0
0.383301616321 3.78976397621 0.0
0.593246012246 3.8948346816 0.0
0.833004203108 3.89475034107 0.0
0.187583903859 3.70688411961 0.0
1.41241609614 3.70688411961 0.0
1.08573330585 3.89673930733 0.0
1.04303343403 3.81530385578 0.0
0.103644791029 3.90516202075 0.0
1.49635520897 3.90516202075 0.0
1.23586605501 3.85112068621 0.0
0.921814270996 3.70213058021 0.0
0.532219762185 3.7029333087 0.0
1.28217045716 3.7375098981 0.0
0.779621693208 3.70806977531 0.0
0.998890529268 3.88397615296 0.0
0.659406618131 3.76469373474 0.0
0.230043799244 3.91599372373 0.0
1.53690667654 3.72637971331 0.0
0.0630933234627 3.72637971331 0.0
0.153148105836 3.90639761309 0.0
1.4478092366 3.90500627713 0.0
0.512139854501 3.90538519137 0.0
0.750930702019 3.90340708 0.0
0.0409150717909 3.90046251393 0.0
1.55908492821 3.90046251393 0.0
0.702096631597 3.96656725638 0.0
0.246204062466 3.82734823738 0.0
0.872012730916 3.80079945556 0.0
0.313419524246 3.75328100976 0.0
1.26305184675 3.57725747237 0.0
1.04341944162 3.90846795586 0.0
0.697725469476 3.93030230037 0.0
0.27003033309 3.96477332623 0.0
0.632456188669 3.80120134001 0.0
0.55988813035 3.96676596088 0.0
0.798125231733 3.9668778541 0.0
0.861599835739 3.96514225679 0.0
0.130196681328 3.96566148827 0.0
1.46980331867 3.96566148827 0.0
0.337465698618 3.96873835045 0.0
1.10690030388 3.57445060302 0.0
1.07038768144 3.96631210642 0.0
0.201908835349 3.96783542832 0.0
1.17640357301 3.96795841043 0.0
0.482502283815 3.8454083814 0.0
1.37723451734 3.90442225885 0.0
0.722497886517 3.84543272537 0.0
0.254749007352 3.57960328731 0.0
0.449206209982 3.91785378051 0.0
0.907803563184 3.91575967116 0.0
0.997592319531 3.96832081731 0.0
1.3597087328 3.59165409162 0.0
0.797785363131 3.87112617582 0.0
0.557788209884 3.87112741711 0.0
0.133223775006 3.57024633267 0.0
1.46673023696 3.57019175074 0.0
0.296361477075 3.90524448543 0.0
1.29555045611 3.90092076583 0.0
1.11951450862 3.79592056714 0.0
0.341558640376 3.57546927501 0.0
0.974255514016 3.92370320024 0.0
0.664786082443 3.91707165091 0.0
1.1442561544 3.86460464827 0.0
0.430695849932 3.74774845865 0.0
1.22439218721 3.92431164104 0.0
0.917330800791 3.76752811157 0.0
0.0995806821614 3.83759752714 0.0
1.50041931784 3.83759752714 0.0
0.586492545959 3.6571718064 0.0
1.16809690663 3.90376349956 0.0
0.490525946651 3.9687439861 0.0
0.170108846494 3.77025381333 0.0
0.726723612771 3.96611364881 0.0
1.42998397347 3.77014833166 0.0
1.55978981314 3.82099569701 0.0
0.0402101868575 3.82099569701 0.0
1.10043652243 3.92805072974 0.0
1.34111814411 3.91924529479 0.0
1.27430066613 3.93505265881 0.0
0.56431092584 3.57086686051 0.0
0.930516510487 3.96969091611 0.0
1.17713743504 3.67180033503 0.0
0.801256410508 3.5635758738 0.0
1.37979186382 3.84566323689 0.0
1.02277822921 3.7577258162 0.0
0.252009847995 3.68167957306 0.0
0.0497138210057 3.58866012032 0.0
1.55028617899 3.58866012032 0.0
0.466046622144 3.57331739513 0.0
0.343019074867 3.81481221655 0.0
0.0645235269233 3.96909610548 0.0
1.53547647308 3.96909610548 0.0
0.0310141903995 3.92955737583 0.0
[...]
POINT_DATA 856
VECTORS Displacement float
0.0 0.0 0
0.0 0.0 0
3.78730274855e-06 0.000139116131578 0
9.79219934136e-06 0.000143740033737 0
0.0 0.0 0
0.0 0.0 0
0.0 0.0 0
0.0 0.0 0
0.0 0.0 0
0.0 0.0 0
0.0 0.0 0
0.0 0.0 0
0.0 0.0 0
0.0 0.0 0
0.0 0.0 0
0.0 0.0 0
0.0 0.0 0
0.0 0.0 0
0.0 0.0 0
0.0 0.0 0
0.0 0.0 0
0.0 0.0 0
0.0 0.0 0
0.0 0.0 0
0.0 0.0 0
0.0 0.0 0
0.000112641456996 -5.3147043232e-05 0
0.000191292130942 -4.34830735761e-05 0
0.000236608683928 -1.12115551371e-05 0
0.000245129824187 2.86155166433e-05 0
0.000231948426352 6.37417517856e-05 0
0.00020471679894 9.27366164162e-05 0
0.000169759288849 0.000113343114503 0
0.000134878197489 0.000126993923419 0
0.000101102568661 0.000134888154645 0
7.0882481917e-05 0.000138016822414 0
4.50323438796e-05 0.000139161000124 0
2.2994455753e-05 0.0001392125035 0
3.88306718971e-06 0.000120187203156 0
3.99454179515e-06 0.00010206346473 0
3.46207578742e-06 8.50552545686e-05 0
1.86879122489e-06 6.91764035858e-05 0
-1.24883963092e-06 5.42227876755e-05 0
-6.2726777911e-06 3.93412990285e-05 0
-1.34855255169e-05 2.50074733102e-05 0
-2.30508472137e-05 9.4107704093e-06 0
-3.5388528907e-05 -6.88284708926e-06 0
-4.99335041028e-05 -2.56056768592e-05 0
-6.76644703786e-05 -4.58853870099e-05 0
-8.81285053293e-05 -7.00810223217e-05 0
-0.000112321430963 -9.76921044464e-05 0
-0.000139411265507 -0.000130113079605 0
-0.000168841860444 -0.000167815904893 0
-0.000202918502013 -0.000211121576187 0
-0.000239191264231 -0.000261040417175 0
-0.000278064936375 -0.000319611733324 0
-0.000321333772989 -0.000387317617316 0
-0.000369742869189 -0.000464016503554 0
-0.000419776790328 -0.00055375752074 0
-0.000475723486127 -0.000656284980676 0
-0.000531975700091 -0.00077394809013 0
-0.00059096213472 -0.000909733136302 0
-0.000655904275448 -0.00106151537317 0
-0.000721596036938 -0.00123626628086 0
-0.000794787051341 -0.00143584463604 0
-0.000866431329446 -0.00166458470618 0
-0.000945855451719 -0.00192982198552 0
-0.00102010551449 -0.00223481464323 0
-0.00110067155695 -0.00258496765365 0
-0.00118634949737 -0.00300507849792 0
-0.00125964885601 -0.00350130088522 0
-0.00134732646364 -0.00412428118715 0
-0.00138819988341 -0.00489917949092 0
-0.00137684375505 -0.00604243288334 0
-0.00113215085068 -0.00769053170303 0
-0.000788973665476 -0.00885846427162 0
-0.000382981401979 -0.00955261093387 0
4.07990822044e-05 -0.0097812710598 0
0.000445268953264 -0.00955687645038 0
0.000857959332982 -0.00886176866316 0
0.00118420300529 -0.00769589643891 0
0.00141239412345 -0.0060458461404 0
0.00142504907838 -0.0049154125492 0
0.00136243195127 -0.0041194454756 0
0.00128052013593 -0.00350353112719 0
0.00119613269219 -0.00300266911966 0
0.0011219778281 -0.00258672536735 0
0.00103759718121 -0.00223142008793 0
0.000959205565935 -0.00192622831044 0
0.000883011614023 -0.00166408788814 0
0.000811427882848 -0.00143602271919 0
0.000739522291998 -0.00123459877916 0
0.000673182140162 -0.0010582960399 0
0.000605821163716 -0.000905036535471 0
0.000545245153518 -0.000771212111164 0
0.000486994081424 -0.000655474627075 0
0.000434661309274 -0.000552709085373 0
0.000383526615049 -0.00046349624514 0
0.000335028675254 -0.000386291319344 0
0.000292053322401 -0.000318630547938 0
0.000251802608024 -0.000260897601798 0
0.000215410549655 -0.000210175034045 0
0.000181664737856 -0.000166990748421 0
0.000152274931892 -0.000129179408284 0
0.000125250782942 -9.72710638949e-05 0
0.000101995707356 -6.90243807091e-05 0
8.13071116607e-05 -4.49515530502e-05 0
6.32859307905e-05 -2.42172661623e-05 0
4.88145191198e-05 -5.34632173594e-06 0
3.65562735432e-05 1.11267646079e-05 0
2.70287192093e-05 2.71495851861e-05 0
1.97856681393e-05 4.1844541009e-05 0
1.47868176533e-05 5.70339077726e-05 0
1.16888453546e-05 7.23373409769e-05 0
1.01087429936e-05 8.85783100313e-05 0
9.58236620238e-06 0.000105953745042 0
9.69628911057e-06 0.000124445309616 0
-9.78389147006e-06 0.000143836568129 0
-3.22263407934e-05 0.000143788369236 0
-5.85222904459e-05 0.000142652030378 0
-8.92413761366e-05 0.000139539925172 0
-0.000123587806806 0.000131677464032 0
-0.000159158265644 0.000118064674998 0
-0.000194930824426 9.74847294176e-05 0
-0.000223216601567 6.8491633905e-05 0
-0.000237717063812 3.323108001e-05 0
-0.000230778947298 -7.00986211017e-06 0
-0.000187156913633 -4.00502281424e-05 0
-0.000110232842952 -5.08708660988e-05 0
-0.000331219713612 -7.30529787966e-05 0
0.000342155919405 -7.35174383873e-05 0
-0.000613105134647 -0.000802410391746 0
-0.000417911128169 -0.00282293850174 0
0.000699478970079 -0.0020275561546 0
0.000418075658543 -0.000541491437765 0
-0.000140960129173 3.61266117049e-05 0
0.000152016407675 3.37907718944e-05 0
-0.000251560508922 -0.000312597112546 0
-0.000595289767747 -0.00211039627585 0
0.000364163541365 -0.00455533394469 0
0.000411887946888 -0.00147236231106 0
-0.000131297747327 -6.24240480311e-05 0
0.000143027974106 -6.45571307445e-05 0
-0.000141855438572 -0.000782489588574 0
-0.000553520828353 -0.00443164760428 0
0.000477279816489 -0.00313546476175 0
8.92300150681e-05 -0.000256458868651 0
4.71679063718e-05 -0.00080506891381 0
-2.01287156575e-05 -0.00149415685935 0
-8.67214840395e-05 -0.00670171576714 0
-6.16061661699e-05 7.91628102595e-05 0
7.39101193549e-05 7.58460225622e-05 0
0.000273114889551 1.13740348955e-05 0
-0.00026501959847 1.33853789788e-05 0
-4.94249874852e-06 -0.00020597443375 0
0.000608862189148 -0.000646609240871 0
-4.72976801217e-05 -2.53326013579e-06 0
5.71253137332e-05 -3.19288488682e-06 0
-0.000133462208204 -0.00274912371819 0
0.000446918305707 -0.00560763719113 0
0.000293293283625 -0.00237007763409 0
-0.000679218429072 -0.001522077912 0
6.26462390683e-05 -0.000475568864949 0
-0.000477313890708 -0.000286670605129 0
-2.76456170665e-05 -0.00204483464032 0
0.000485181499343 -0.000263610157247 0
-7.81526468387e-05 -0.000479812234553 0
-1.42490298197e-06 -0.000125773249571 0
-3.97836676935e-05 3.93836852497e-05 0
5.22773340483e-05 3.71812952773e-05 0
0.00066633054936 -0.0010382895106 0
-0.000166276949223 -0.00129599499222 0
1.2598873476e-05 -9.35608102774e-05 0
0.000346804173912 -0.000210309224346 0
-0.00023332765773 -0.00447778836821 0
-0.000488986685029 -0.00124572695854 0
-0.000263153391764 -3.00471403282e-05 0
0.000265319578755 -3.15423480494e-05 0
0.000431917444828 -0.001039283255 0
-0.000516667959756 -0.000504262482358 0
-0.000163889422288 -0.00133324979262 0
0.000204423723002 -0.000943363062716 0
-0.000259720780805 -0.00607330754165 0
-0.000227062112115 -1.1442865498e-05 0
0.000240737796942 -1.68544172325e-05 0
4.48937226529e-06 -0.00381095934675 0
-0.000144307851586 7.65908120355e-05 0
0.000155344519201 7.31126894706e-05 0
-8.95131708287e-05 -0.000264228006739 0
-0.000292212097972 -0.000144699683527 0
-0.000382041695349 -0.000121506233063 0
-0.000409922096142 -0.000222879687975 0
0.000207695708575 -0.00732378360335 0
0.000256407934136 -0.00207758658225 0
0.000167240027187 -0.00376695827064 0
1.87650309473e-06 -5.4587255568e-05 0
0.00069825174995 -0.00300034678909 0
-0.000398896068633 -0.000618651718572 0
-0.000651031184857 -0.0031708815844 0
0.000137775843884 -0.000334143628364 0
0.000213632469964 -0.000452227484405 0
-0.000220787676514 -0.000676555385749 0
3.05445616147e-05 -4.47970855031e-05 0
-0.000412748858908 -0.000856650448787 0
0.000622445805287 -0.0022670250349 0
0.000393959106782 -0.0009038064985 0
0.00024717604314 1.58564671781e-06 0
-0.000242194634732 3.65255339488e-06 0
0.000388096842202 -0.0013194715122 0
0.000279847947944 -0.000690887304062 0
-6.0924242918e-05 -0.00794236830444 0
0.000227866218423 4.90853245474e-05 0
-0.000218381826304 5.23333240441e-05 0
-0.000394592382048 -0.00274628930611 0
0.000103074653368 -0.000173935462478 0
0.000374549332666 -0.000107115373847 0
-0.000303092001992 -0.000938226962996 0
0.000591213213986 -0.000559730318459 0
-1.37798490895e-05 -0.0053126027752 0
-2.49434460794e-06 1.04240797933e-05 0
8.88500665166e-06 6.43107586907e-06 0
-2.81167665635e-05 0.000103438198248 0
4.09877522072e-05 9.95961882926e-05 0
0.000204714925326 -0.000159548346383 0
0.000256411410548 -7.04313565192e-05 0
0.000614993170559 -0.00413973269501 0
0.000110545178722 -0.00363678404625 0
-0.00068701138663 -0.00153561077515 0
0.000672668424858 -0.001139994976 0
-0.000185278235756 -0.000499919093354 0
0.00040672719141 -0.000240172067976 0
-0.000573579261818 -0.00318410125262 0
-1.89072268341e-05 6.65182119803e-05 0
3.18713020896e-05 6.35292398917e-05 0
0.000172900746651 -0.00114852566547 0
-0.000142553023459 6.30593619372e-07 0
0.000153501950491 -4.92867502256e-07 0
-0.000149859570125 -0.000150075556556 0
0.000429460024153 -0.00276966992933 0
-0.000478166930968 -0.00170631816635 0
-0.000437675383886 -0.00173492835199 0
-0.000576383844012 -0.00048493450922 0
-6.14527621388e-05 -9.65120749046e-05 0
0.000467308838868 -0.000601453668589 0
-0.00021336933528 2.82889472655e-05 0
0.000223515564946 2.5930337621e-05 0
-0.000100555966163 -0.000171692616236 0
-0.000194197425663 -0.000391126869199 0
-7.25337563238e-05 -0.000326853848391 0
0.000240551150922 -0.000480837258103 0
-1.37937696085e-05 -2.6307813711e-05 0
0.000469137736848 -0.000346846986954 0
-0.000415480182129 -0.000350613330047 0
-0.000304020856125 -0.00206596508152 0
0.000306119606686 -0.00576585114765 0
-0.000302291676006 -2.39963927675e-05 0
0.000308811255306 -2.45170541874e-05 0
0.000170178314987 -0.00114026872558 0
0.000623748502551 -0.00146432164182 0
-9.12760973917e-05 5.59186942894e-05 0
0.000103107976544 5.31681265893e-05 0
0.000251617406912 -0.000296722454753 0
0.000528625402059 -0.00182032756188 0
-0.000658616235317 -0.000897745819691 0
0.000416280278997 -0.000174679216573 0
-0.000107925402229 -0.00230004454125 0
0.000427426787501 -0.00217443791621 0
-0.000660565173123 -0.0022809573656 0
-5.36670434221e-05 -3.97708995065e-05 0
0.000259559520136 2.42886799233e-05 0
-0.000252156009135 2.73503705014e-05 0
-8.47499273936e-05 2.45588077196e-05 0
9.91902874427e-05 2.30719771153e-05 0
-9.30457518973e-05 -0.00111977039596 0
-0.000391208154701 -0.00571023183064 0
-9.75464616536e-05 9.87799642696e-05 0
0.000109309085382 9.49141011299e-05 0
0.000219106228906 -0.00497343557074 0
-0.000230267569504 -6.09226272519e-05 0
0.000477806765852 -0.00342924248572 0
-0.000389446144579 -0.000168964454521 0
0.000275163446311 -0.000105437683306 0
0.000139981059151 -0.00158350000253 0
-0.000332947274671 -0.00460376654625 0
7.09402567921e-05 -9.98484335033e-05 0
-0.000703369793947 -0.00227676924769 0
0.000477232824358 -0.00163488744437 0
2.62424659987e-05 -0.00850085337895 0
5.76994068035e-05 -0.00675557834031 0
-1.00725774548e-05 3.77855228659e-05 0
2.30694649466e-05 3.54596479742e-05 0
0.000155278307715 -0.000237622767702 0
0.000355692164023 -0.000286031654913 0
-0.000417409666996 -0.00130146694675 0
2.46993194057e-05 -1.85966010911e-05 0
-0.000263235518401 -0.000548364261041 0
-0.000385114643034 -0.00086122952953 0
9.04489971858e-05 -3.28109393879e-05 0
-0.000543917789317 -0.00405474386675 0
-0.000218463778115 -5.37727281668e-05 0
1.37313143233e-05 -0.00066644168045 0
0.000462728844507 -0.00431113922541 0
-0.000512689485938 -0.00224880843842 0
0.000236882439732 -5.27473740039e-05 0
-1.28491324534e-05 -0.0053443805445 0
-0.000386667661752 -0.00156857922173 0
-0.00014244682988 -1.01149740323e-05 0
0.000145026698736 -1.08446573762e-05 0
-6.24581672683e-05 -0.000133658070194 0
8.57303212037e-05 -0.000148697217759 0
0.000551086316259 -0.000810744937007 0
-0.000270781842831 -0.000107319558551 0
0.000147178508151 -0.00267032070362 0
-0.000341478395683 -0.00354966986245 0
0.000279670073093 -0.000699653996562 0
-0.000541505269562 -0.000501718734139 0
-1.25488677015e-05 -0.000338628143292 0
0.000615381024037 -0.00254698320272 0
-0.000178497922291 4.81204573781e-05 0
0.000188944047501 4.53848970753e-05 0
-0.000582098134622 -0.000948077234435 0
7.49522641385e-05 -0.000572848174954 0
0.000394523545355 -0.000957213787956 0
-0.000266825881469 -2.76044421e-06 0
3.14813603725e-05 -0.00618829780695 0
0.000275844396914 -4.55179535736e-06 0
0.000198538670061 7.23372289419e-05 0
-0.000188437037652 7.61734043597e-05 0
-6.65300256889e-05 -0.00101503733155 0
5.04471677199e-05 -7.63306440344e-05 0
-2.38805861339e-05 -0.000198882545683 0
-0.000347534254052 -0.00038320534371 0
-0.000453177222175 -0.00376838078832 0
0.000539794092508 -0.00037739071348 0
1.87189888713e-06 -0.000583049982407 0
0.00019983273021 -3.1750829709e-05 0
0.000716616414033 -0.00145372993329 0
-0.000345989683914 -7.56089349879e-05 0
-0.000149686232313 -1.32523438219e-05 0
0.000152563822764 -1.49608619067e-05 0
-0.000346820159304 -0.000238432694824 0
-0.000320594306277 -0.000234432070847 0
-1.84133203879e-05 8.53424287398e-05 0
3.14311700601e-05 8.19024544013e-05 0
-6.29357948646e-05 0.000111540349438 0
7.52352410465e-05 0.000107481993599 0
-0.000210052669407 -0.000612765467064 0
-0.000136757060176 -0.000212506765997 0
-0.000454702751522 -0.000225376435693 0
-0.000633492492294 -0.00109903737155 0
-0.000229142628093 -0.00343691201802 0
0.000206775968567 -0.000633555089596 0
0.000342793927103 -0.000125177039788 0
-0.000182091999743 1.54711023464e-05 0
-0.000180683045949 -0.00027391715263 0
0.000192696234187 1.57093307312e-05 0
0.000402526037623 -0.000345991619451 0
0.0006637012123 -0.00291201171036 0
-0.000413030546696 -0.000829113131219 0
6.47244973962e-05 -0.00457787740152 0
-0.000565726768451 -0.0016143989123 0
-4.95250225824e-05 -6.72034308844e-05 0
-5.26824829363e-05 5.92854558418e-05 0
6.50808745567e-05 5.64877402481e-05 0
0.000595505131297 -0.00231396121557 0
0.000582022780561 -0.00332518400404 0
0.000519585958714 -0.00120910828048 0
-9.28092562248e-05 7.60190771275e-05 0
0.000104639310424 7.2739188467e-05 0
-0.000273858550115 1.48663887568e-06 0
0.000280264907831 -2.94879173632e-07 0
-0.000191719377206 -0.00866038921208 0
0.000517286989655 -0.00507448446402 0
0.000241861693663 -0.00039393498003 0
-1.68724446074e-05 0.000117809824381 0
2.99504568861e-05 0.000113678460803 0
0.000716464125847 -0.00229874783305 0
-0.00043097181251 -0.0026165542802 0
-0.00010833778343 -0.000138489703463 0
-0.000152122748983 -2.7924510636e-05 0
0.00065575171753 -0.000780127138909 0
-4.43513521939e-05 2.28727346097e-05 0
5.51509769595e-05 -0.000436425472436 0
6.03042519806e-05 1.94590439566e-05 0
0.000338471309244 -0.000582360980149 0
0.00060761101406 -0.00375596019103 0
-0.000143224896033 -0.000805003425254 0
-0.000678457794682 -0.00273982072398 0
0.000305729348091 -0.000477118742659 0
-0.000317097781511 -0.000448013587193 0
-9.05874907064e-05 -1.52149058294e-05 0
0.000346744505956 -6.41283321303e-05 0
-1.94140639075e-05 -1.1328777584e-05 0
-0.000318696080482 -0.00108693834378 0
-0.000411061961695 -0.00490590567758 0
-0.000525330946543 -0.000815229763545 0
8.08708868028e-05 -7.64629793362e-05 0
-2.38788282253e-06 -0.00182381668043 0
0.000144550383894 -0.0068528922685 0
-0.000505969858198 -0.0033922426282 0
3.67570022901e-05 -0.000275344528087 0
0.000465180046254 -0.00409339032761 0
-0.000626865917902 -0.00373912959377 0
-0.000130398086796 9.71538677766e-05 0
0.000141633281976 9.31864381616e-05 0
-0.000123221325683 -0.00161648145101 0
0.000645754302185 -0.00156340129979 0
0.000162212657716 -2.53173702289e-05 0
-0.000215839421878 -0.000218066381311 0
0.000122338450809 -0.000136680800576 0
-0.000273560068892 -4.26458253067e-05 0
-6.17713921428e-05 -6.99094584875e-05 0
-0.000694849179861 -0.0011836590679 0
-0.000270674104787 -0.000669866178737 0
-0.000190736761841 -9.39745155581e-05 0
-0.000151226901556 -2.35663080094e-05 0
0.000440710925633 -0.000823886763915 0
0.000526842271993 -0.00112208596487 0
0.000253158129658 -0.00769435856571 0
0.000217493229819 -0.000889545083039 0
-0.00013725695846 5.78034737358e-05 0
0.000148487564099 5.49151522994e-05 0
0.000248395583 8.08263152276e-06 0
-0.000242549401663 1.10144577344e-05 0
0.000288177885654 -4.55146607819e-05 0
-2.64613496154e-05 -0.00292639489363 0
-0.000741210723716 -0.00323725789 0
1.14344493807e-05 2.30102565955e-05 0
9.98246959506e-07 2.03302894992e-05 0
-0.000428528121499 -0.000187671648025 0
0.000208326279536 -0.000308693843071 0
-0.000678539512131 -0.00443270107 0
2.0828821833e-05 -2.79502042449e-05 0
0.000124165824586 -0.00115019619088 0
-0.000329738088142 -0.00630957395192 0
-0.000498096845909 -0.00112359403448 0
-5.03063233952e-07 5.07571783777e-05 0
1.36962110147e-05 4.81301644653e-05 0
-4.9017615657e-05 -0.000655894898626 0
0.000290398315472 -0.000134445330165 0
0.000576045713376 -0.00192513726357 0
0.000575574077696 -0.00104144264426 0
0.000404719735411 -0.000164630539721 0
0.000151667841433 -0.000341700598996 0
-0.000596517515887 -0.00151343938355 0
-0.000504362149602 -0.000388742727452 0
0.000111488713504 -9.32948325923e-05 0
0.000210171576267 -0.00152415348925 0
-5.17911748613e-05 -0.00754692803931 0
-8.74349319847e-06 -2.0184492479e-05 0
-0.000450600657324 -0.00534570486448 0
6.57684801317e-06 -0.000131737476374 0
0.000193769905837 -9.76670123683e-05 0
0.000114272879364 -0.0019073059754 0
0.000311029141256 -3.28222713794e-05 0
-0.000159863674878 -0.000217690394632 0
-0.000343560271204 -0.00219239349037 0
0.000510482459418 -0.00185748030451 0
-0.000627887883938 -0.000701497100229 0
2.76935899551e-05 -0.000831209094947 0
-0.000230745988884 -0.000345736506412 0
0.000107492522685 -1.04428606798e-05 0
-0.000302014298912 -3.07808939734e-05 0
0.000336361669257 -0.00181502380965 0
-0.000366074640983 -0.000682930103551 0
-0.000332308232066 -0.00118507603826 0
0.00022367695842 6.33859055432e-05 0
-0.000214309816328 6.73755034161e-05 0
0.000242296441945 -0.00325708219137 0
0.000342468803408 -0.00114376350004 0
0.000176150542266 -0.000556181349212 0
0.000543287050345 -0.000511010573531 0
-0.000303716335442 -6.26354928161e-05 0
5.29299640209e-05 -3.80957644055e-05 0
-0.000228482655428 -0.000111772577265 0
0.000304348639036 -0.00657779846918 0
0.000159571381628 -0.00248112994375 0
5.92252892209e-05 -0.00319294919034 0
0.00015920829699 -0.000201605196117 0
-4.00581690278e-05 -0.000536001229217 0
-2.50807262315e-05 5.05665637414e-05 0
7.34098225704e-05 -0.000214922676354 0
3.79008137744e-05 4.79790289412e-05 0
0.000183070171183 -0.000238343522052 0
0.00062287112301 -0.00148187905068 0
0.000111334821353 -0.00872671105598 0
-0.000111934683921 -0.0023954620976 0
-0.00030049131705 -9.59502549293e-05 0
-0.000581691209756 -0.00125749072417 0
0.000693990456042 -0.00190257162289 0
0.000311521866385 -0.000551962034361 0
0.000322558487633 -0.000401635560249 0
-0.000347680124464 -0.00149085626408 0
0.000231471226467 -0.00460082152707 0
6.06561651591e-05 -0.000379518019686 0
1.66320585407e-05 -8.47918498802e-06 0
-0.000418877513609 -0.000254778183786 0
-0.000380655349496 -0.00627623064437 0
-0.00037872406035 -0.000113800405778 0
0.000234915486092 -0.00011452296224 0
-5.30185196415e-06 -5.88470957212e-05 0
-1.64173221586e-05 2.72007462938e-05 0
2.97425713039e-05 2.1523779202e-05 0
0.000450691368895 -0.002852913164 0
-6.00143657431e-06 9.91950356521e-05 0
1.92648161063e-05 9.54478929963e-05 0
-0.000709258330095 -0.00255622070917 0
3.04282492523e-05 -7.55010945832e-06 0
-0.000239375746624 3.1354847564e-05 0
0.000248448437828 2.88436386188e-05 0
0.000532332577189 -0.00038318046837 0
-0.000287414831137 -0.00112666829175 0
2.95520022541e-06 -0.000257942746526 0
6.16868540501e-05 -0.000129796870685 0
0.00030702381453 -0.00394987880638 0
-0.00018684541479 -0.000334506407961 0
0.00021657703982 -0.00193071729763 0
-0.000528058181523 -0.00371544942841 0
-0.000671472125618 -0.00195338727977 0
-0.000210588013379 -0.00133548419667 0
-0.000227251629947 -0.00581443169302 0
-3.94936423307e-05 0.000122086621135 0
5.21770171876e-05 0.000117855347887 0
-0.000527043585192 -0.000610919932149 0
-0.000105961694625 -0.000336151885897 0
-7.49198872051e-05 4.0598015048e-05 0
0.000802282817841 -0.00276965039366 0
8.7224408151e-05 3.83074724802e-05 0
-5.28299980321e-05 -0.000126276992335 0
0.000373306407922 -0.00618449910515 0
-0.000511884292743 -0.000335901852997 0
-0.000717177874013 -0.0018197326326 0
0.000454098418854 -0.000246603091301 0