# vtk DataFile Version 2.0
Generated with Solid Solver
ASCII
DATASET UNSTRUCTURED_GRID
POINTS 856 float 
0.0 3.5 0.0
1.6 3.5 0.0
1.6 4.0 0.0
0.0 4.0 0.0
0.0695652173912 3.5 0.0
0.139130434782 3.5 0.0
0.208695652174 3.5 0.0
0.278260869565 3.5 0.0
0.347826086956 3.5 0.0
0.417391304347 3.5 0.0
0.486956521738 3.5 0.0
0.556521739129 3.5 0.0
0.62608695652 3.5 0.0
0.695652173911 3.5 0.0
0.765217391302 3.5 0.0
0.834782608694 3.5 0.0
0.904347826085 3.5 0.0
0.973913043477 3.5 0.0
1.04347826087 3.5 0.0
1.11304347826 3.5 0.0
1.18260869565 3.5 0.0
1.25217391304 3.5 0.0
1.32173913043 3.5 0.0
1.39130434783 3.5 0.0
1.46086956522 3.5 0.0
1.53043478261 3.5 0.0
1.6 3.56430812594 0.0
1.6 3.62270835268 0.0
1.6 3.6757434324 0.0
1.6 3.7239062376 0.0
1.6 3.76764438351 0.0
1.6 3.80736436404 0.0
1.6 3.84343531219 0.0
1.6 3.87619247117 0.0
1.6 3.90594026707 0.0
1.6 3.93295517284 0.0
1.6 3.95748825478 0.0
1.6 3.97976750982 0.0
1.58000000587 4.0 0.0
1.55999996633 4.0 0.0
1.54000002214 4.0 0.0
1.51999997198 4.0 0.0
1.50000000455 4.0 0.0
1.48000000216 4.0 0.0
1.45999997931 4.0 0.0
1.44000002484 4.0 0.0
1.41999997044 4.0 0.0
1.40000002096 4.0 0.0
1.37999999963 4.0 0.0
1.35999999626 4.0 0.0
1.34000002179 4.0 0.0
1.31999997343 4.0 0.0
1.3000000318 4.0 0.0
1.27999998783 4.0 0.0
1.26000000202 4.0 0.0
1.24000001295 4.0 0.0
1.21999998074 4.0 0.0
1.20000003685 4.0 0.0
1.17999998163 4.0 0.0
1.16000001473 4.0 0.0
1.14000000469 4.0 0.0
1.11999999139 4.0 0.0
1.10000003625 4.0 0.0
1.07999997877 4.0 0.0
1.06000002802 4.0 0.0
1.04000000338 4.0 0.0
1.02000000764 4.0 0.0
1.00000002986 4.0 0.0
0.979999980237 4.0 0.0
0.960000035522 4.0 0.0
0.939999990881 4.0 0.0
0.920000014619 4.0 0.0
0.900000017903 4.0 0.0
0.879999986222 4.0 0.0
0.860000037278 4.0 0.0
0.839999982352 4.0 0.0
0.820000022783 4.0 0.0
0.800000000002 4.0 0.0
0.779999977222 4.0 0.0
0.760000017652 4.0 0.0
0.739999962726 4.0 0.0
0.720000013782 4.0 0.0
0.699999982101 4.0 0.0
0.679999985385 4.0 0.0
0.660000009123 4.0 0.0
0.639999964482 4.0 0.0
0.620000019766 4.0 0.0
0.599999970141 4.0 0.0
0.57999999236 4.0 0.0
0.559999996622 4.0 0.0
0.539999971983 4.0 0.0
0.520000021235 4.0 0.0
0.499999963756 4.0 0.0
0.480000008612 4.0 0.0
0.459999995315 4.0 0.0
0.439999985272 4.0 0.0
0.420000018371 4.0 0.0
0.39999996315 4.0 0.0
0.380000019261 4.0 0.0
0.359999987052 4.0 0.0
0.339999997986 4.0 0.0
0.320000012172 4.0 0.0
0.299999968206 4.0 0.0
0.280000026575 4.0 0.0
0.259999978213 4.0 0.0
0.240000003742 4.0 0.0
0.220000000371 4.0 0.0
0.199999979041 4.0 0.0
0.180000029557 4.0 0.0
0.159999975162 4.0 0.0
0.140000020694 4.0 0.0
0.119999997846 4.0 0.0
0.0999999954514 4.0 0.0
0.0800000280232 4.0 0.0
0.0599999778571 4.0 0.0
0.0400000336732 4.0 0.0
0.0199999941324 4.0 0.0
0.0 3.97976750982 0.0
0.0 3.95748825478 0.0
0.0 3.93295517284 0.0
0.0 3.90594026707 0.0
0.0 3.87619247117 0.0
0.0 3.84343531219 0.0
0.0 3.80736436404 0.0
0.0 3.76764438351 0.0
0.0 3.7239062376 0.0
0.0 3.6757434324 0.0
0.0 3.62270835268 0.0
0.0 3.56430812594 0.0
0.249757905714 3.75212552678 0.0
1.35000000902 3.74954526597 0.0
0.488714190926 3.75947467509 0.0
0.727445026698 3.75983525744 0.0
0.962900270309 3.76055270856 0.0
1.17161197633 3.81755162829 0.0
0.130754031542 3.86878251069 0.0
1.46924596846 3.86878251069 0.0
0.369913852535 3.84868154079 0.0
0.603236233099 3.84763103091 0.0
0.843402107212 3.84736931152 0.0
1.05041705507 3.86611282467 0.0
0.250539323282 3.87785527135 0.0
1.34882231626 3.87787871523 0.0
0.468661896861 3.89189320321 0.0
0.704258117309 3.89639128976 0.0
0.94963922804 3.89654080835 0.0
1.25000000748 3.89875296068 0.0
1.12879020517 3.91059303421 0.0
0.548928478218 3.91905583534 0.0
0.7889268651 3.91906062813 0.0
0.0712526194949 3.93011432704 0.0
1.52874738051 3.93011432704 0.0
1.4740071133 3.74293106904 0.0
0.125992886699 3.74293106904 0.0
0.329956761073 3.92118145982 0.0
1.09412206522 3.66725831207 0.0
0.190000004299 3.92542384899 0.0
1.41098423528 3.92728100222 0.0
0.629999992124 3.92414139091 0.0
0.87000001175 3.92414140592 0.0
0.853391941071 3.71944243214 0.0
0.610032822379 3.72536074396 0.0
0.41090315692 3.92892991009 0.0
0.370435019193 3.7251305208 0.0
1.01000001875 3.93130199947 0.0
1.22823348571 3.68694249365 0.0
1.18894423177 3.93487447818 0.0
1.31063576122 3.93502724255 0.0
0.129927636183 3.94112156482 0.0
1.47007236382 3.94112156482 0.0
1.07646504896 3.76194504855 0.0
1.07000000339 3.94017719684 0.0
0.270000002394 3.93875928556 0.0
1.26759839792 3.80243333593 0.0
0.770332946246 3.83880063275 0.0
0.530342720064 3.83880306325 0.0
0.189898092614 3.63474333735 0.0
1.4101772205 3.6313147556 0.0
0.942883893479 3.62966700486 0.0
0.510631148905 3.62429064243 0.0
0.754670889573 3.63369080225 0.0
0.489999986184 3.94463854908 0.0
0.732500655853 3.9452729887 0.0
0.193627936713 3.81528931126 0.0
1.40183871842 3.81461096917 0.0
0.928721275957 3.94715071018 0.0
0.0604617896557 3.86281267064 0.0
1.53953821034 3.86281267065 0.0
1.25036152032 3.94913766834 0.0
0.30096552553 3.81141484704 0.0
0.297089357677 3.66359682597 0.0
0.394212311705 3.61316974741 0.0
0.831051681923 3.94633984116 0.0
0.592085081305 3.94901138542 0.0
0.669405291514 3.95495209798 0.0
1.3611855791 3.94637621082 0.0
0.928496698914 3.82436133158 0.0
0.444093171593 3.8271987226 0.0
0.683378885111 3.8234871366 0.0
0.372430737197 3.95235208784 0.0
1.19348789949 3.87019408468 0.0
1.15124363553 3.95467023547 0.0
0.229287653728 3.96038323295 0.0
0.646635519079 3.61231195482 0.0
0.986819459779 3.84973028271 0.0
1.11214815433 3.84770266014 0.0
1.50610225987 3.6604664246 0.0
0.0938977401332 3.6604664246 0.0
0.531976760298 3.96138656711 0.0
0.451361041931 3.96112773652 0.0
0.771976835888 3.96138886125 0.0
1.53311213884 3.79435404356 0.0
0.066887861162 3.79435404356 0.0
0.970836553066 3.9620233382 0.0
0.311702426505 3.96111572975 0.0
1.31698094247 3.6658628839 0.0
1.11177843379 3.95948388532 0.0
1.15003411964 3.72957279566 0.0
0.890058924798 3.96133576813 0.0
0.169108880648 3.96040269401 0.0
1.42850737314 3.96465656678 0.0
0.0426347993992 3.9610175717 0.0
1.5573652006 3.9610175717 0.0
1.28993057938 3.85776473604 0.0
1.34652710411 3.82072629166 0.0
0.897316840472 3.87585124602 0.0
0.814484972147 3.79171515708 0.0
0.573290986674 3.7879873938 0.0
1.02164717476 3.69631051635 0.0
0.41798215839 3.87594988344 0.0
1.18469655214 3.6045863568 0.0
0.657426542805 3.87734841349 0.0
0.0893439701605 3.9657484063 0.0
1.51065602984 3.9657484063 0.0
0.850202761783 3.61862953305 0.0
0.185775988195 3.86980628439 0.0
1.41422401181 3.86980628439 0.0
0.305957202498 3.87340573583 0.0
0.629999992124 3.96272981278 0.0
0.686026569054 3.68766751472 0.0
1.03220081924 3.96436031967 0.0
0.445441337222 3.69456289967 0.0
1.33308537187 3.96770341358 0.0
1.0249206042 3.60512275769 0.0
0.128645746764 3.81165411571 0.0
1.47135425324 3.81165411571 0.0
1.29077706219 3.96625078806 0.0
1.21302440104 3.96491551313 0.0
0.373320303365 3.89968789902 0.0
0.409457647309 3.96502881891 0.0
1.39076199588 3.96614348387 0.0
1.2156032112 3.76624353786 0.0
0.383301616321 3.78976397621 0.0
0.593246012246 3.8948346816 0.0
0.833004203108 3.89475034107 0.0
0.187583903859 3.70688411961 0.0
1.41241609614 3.70688411961 0.0
1.08573330585 3.89673930733 0.0
1.04303343403 3.81530385578 0.0
0.103644791029 3.90516202075 0.0
1.49635520897 3.90516202075 0.0
1.23586605501 3.85112068621 0.0
0.921814270996 3.70213058021 0.0
0.532219762185 3.7029333087 0.0
1.28217045716 3.7375098981 0.0
0.779621693208 3.70806977531 0.0
0.998890529268 3.88397615296 0.0
0.659406618131 3.76469373474 0.0
0.230043799244 3.91599372373 0.0
1.53690667654 3.72637971331 0.0
0.0630933234627 3.72637971331 0.0
0.153148105836 3.90639761309 0.0
1.4478092366 3.90500627713 0.0
0.512139854501 3.90538519137 0.0
0.750930702019 3.90340708 0.0
0.0409150717909 3.90046251393 0.0
1.55908492821 3.90046251393 0.0
0.702096631597 3.96656725638 0.0
0.246204062466 3.82734823738 0.0
0.872012730916 3.80079945556 0.0
0.313419524246 3.75328100976 0.0
1.26305184675 3.57725747237 0.0
1.04341944162 3.90846795586 0.0
0.697725469476 3.93030230037 0.0
0.27003033309 3.96477332623 0.0
0.632456188669 3.80120134001 0.0
0.55988813035 3.96676596088 0.0
0.798125231733 3.9668778541 0.0
0.861599835739 3.96514225679 0.0
0.130196681328 3.96566148827 0.0
1.46980331867 3.96566148827 0.0
0.337465698618 3.96873835045 0.0
1.10690030388 3.57445060302 0.0
1.07038768144 3.96631210642 0.0
0.201908835349 3.96783542832 0.0
1.17640357301 3.96795841043 0.0
0.482502283815 3.8454083814 0.0
1.37723451734 3.90442225885 0.0
0.722497886517 3.84543272537 0.0
0.254749007352 3.57960328731 0.0
0.449206209982 3.91785378051 0.0
0.907803563184 3.91575967116 0.0
0.997592319531 3.96832081731 0.0
1.3597087328 3.59165409162 0.0
0.797785363131 3.87112617582 0.0
0.557788209884 3.87112741711 0.0
0.133223775006 3.57024633267 0.0
1.46673023696 3.57019175074 0.0
0.296361477075 3.90524448543 0.0
1.29555045611 3.90092076583 0.0
1.11951450862 3.79592056714 0.0
0.341558640376 3.57546927501 0.0
0.974255514016 3.92370320024 0.0
0.664786082443 3.91707165091 0.0
1.1442561544 3.86460464827 0.0
0.430695849932 3.74774845865 0.0
1.22439218721 3.92431164104 0.0
0.917330800791 3.76752811157 0.0
0.0995806821614 3.83759752714 0.0
1.50041931784 3.83759752714 0.0
0.586492545959 3.6571718064 0.0
1.16809690663 3.90376349956 0.0
0.490525946651 3.9687439861 0.0
0.170108846494 3.77025381333 0.0
0.726723612771 3.96611364881 0.0
1.42998397347 3.77014833166 0.0
1.55978981314 3.82099569701 0.0
0.0402101868575 3.82099569701 0.0
1.10043652243 3.92805072974 0.0
1.34111814411 3.91924529479 0.0
1.27430066613 3.93505265881 0.0
0.56431092584 3.57086686051 0.0
0.930516510487 3.96969091611 0.0
1.17713743504 3.67180033503 0.0
0.801256410508 3.5635758738 0.0
1.37979186382 3.84566323689 0.0
1.02277822921 3.7577258162 0.0
0.252009847995 3.68167957306 0.0
0.0497138210057 3.58866012032 0.0
1.55028617899 3.58866012032 0.0
0.466046622144 3.57331739513 0.0
0.343019074867 3.81481221655 0.0
0.0645235269233 3.96909610548 0.0
1.53547647308 3.96909610548 0.0
0.0310141903995 3.92955737583 0.0
[...]
POINT_DATA 856
VECTORS Displacement float
0.0 0.0 0
0.0 0.0 0
0.00417866010363 0.000128259170695 0
-0.00412167923184 0.000145242237851 0
0.0 0.0 0
0.0 0.0 0
0.0 0.0 0
0.0 0.0 0
0.0 0.0 0
0.0 0.0 0
0.0 0.0 0
0.0 0.0 0
0.0 0.0 0
0.0 0.0 0
0.0 0.0 0
0.0 0.0 0
0.0 0.0 0
0.0 0.0 0
0.0 0.0 0
0.0 0.0 0
0.0 0.0 0
0.0 0.0 0
0.0 0.0 0
0.0 0.0 0
0.0 0.0 0
0.0 0.0 0
0.00400301290392 -0.00273062051463 0
0.00679088995472 -0.00330575754554 0
0.00861328809912 -0.00305036534559 0
0.00937212818048 -0.00241459392106 0
0.00945358657497 -0.00173932684683 0
0.0090742397344 -0.00110305531719 0
0.00837106692066 -0.000615368664596 0
0.00759765842607 -0.000259481530055 0
0.00677142301038 -3.06315520536e-05 0
0.00599360639679 7.47599577678e-05 0
0.00530157729217 0.000120031388987 0
0.00470182332335 0.000129882541076 0
0.00418031735556 -0.000384939200547 0
0.00417694654402 -0.000875363170865 0
0.00415137181468 -0.00134347016722 0
0.0040915068967 -0.00179476790101 0
0.00398978340839 -0.00224331375694 0
0.00384192901976 -0.00271263746907 0
0.00363769038717 -0.00320094139716 0
0.00338727266842 -0.00375076380881 0
0.00307286648213 -0.00435824452091 0
0.00272321190231 -0.00506094961909 0
0.0023072050691 -0.00584981436842 0
0.00185040725609 -0.00677842255953 0
0.00132422225397 -0.0078465457206 0
0.000763568703619 -0.00909742474642 0
0.000194035546271 -0.0105283721661 0
-0.000462568843766 -0.0121908257237 0
-0.00110568064673 -0.0140987048902 0
-0.00173533138419 -0.0163143320629 0
-0.00239727047852 -0.0188751525829 0
-0.00311227260182 -0.0218666778404 0
-0.00369681934945 -0.0253661711789 0
-0.0042564204491 -0.0295633297915 0
-0.00443665059874 -0.0346587559661 0
-0.00408309517217 -0.0412771846567 0
-0.00309021583532 -0.0488553931428 0
-0.00206492153186 -0.0558419659065 0
-0.000988694739111 -0.0622926734719 0
-0.000114468900603 -0.0683021420834 0
0.000673821504866 -0.0738325818755 0
0.00125299020944 -0.0789201423332 0
0.001723162878 -0.0835357318584 0
0.00201912337963 -0.0876933669571 0
0.00214862949946 -0.0913901078886 0
0.00217932963281 -0.0946001459017 0
0.00207097989081 -0.0973317198892 0
0.00185830091733 -0.0995788006681 0
0.00154602270481 -0.101334344673 0
0.00117160948312 -0.102596243842 0
0.000715497052048 -0.103354970897 0
0.000184842134749 -0.103595599382 0
-0.000441835268929 -0.103360644539 0
-0.000959750128222 -0.102606985781 0
-0.00138192353653 -0.101351556232 0
-0.00170808825723 -0.099598578086 0
-0.00194466420258 -0.0973494733435 0
-0.00205845604917 -0.0946187013885 0
-0.00203884239178 -0.0914050245024 0
-0.00189620944648 -0.0877189834187 0
-0.00163287588052 -0.0835587566684 0
-0.00115227279536 -0.0789494594024 0
-0.000597120538401 -0.0738587096382 0
0.000191426295114 -0.068330193024 0
0.00108015251905 -0.0623265168089 0
0.00212291822295 -0.0558665098861 0
0.00316370763051 -0.0488870552849 0
0.00416825658405 -0.0413159226494 0
0.00451155601298 -0.0346467581199 0
0.00422209225634 -0.0295128265291 0
0.00378955124938 -0.0253978085411 0
0.00317924330193 -0.0218581269173 0
0.00245546201824 -0.0188790847859 0
0.00179152442123 -0.0163132438542 0
0.00113082446884 -0.0141108139343 0
0.000470275820534 -0.0121894187862 0
-0.000161806391105 -0.0105370994996 0
-0.00072962300976 -0.00909729813851 0
-0.00129151034991 -0.00785871852011 0
-0.00178446806737 -0.00678400631854 0
-0.00225104258828 -0.00585490580597 0
-0.00267023377049 -0.00506347119643 0
-0.00301743838256 -0.00436110343098 0
-0.00332987555162 -0.00375256297501 0
-0.00357993991865 -0.00319877489753 0
-0.00378497047088 -0.00270780859433 0
-0.00393259767881 -0.00223681639157 0
-0.00403430529803 -0.00178600300171 0
-0.00409425273963 -0.00133254245409 0
-0.00411990839785 -0.000862370463543 0
-0.00412332813182 -0.000369952631527 0
-0.00464687793236 0.000146856912746 0
-0.00524886575058 0.0001369491861 0
-0.0059432307826 9.16031186952e-05 0
-0.00672342794944 -1.37859868975e-05 0
-0.0075522632413 -0.00024234981463 0
-0.00832883101134 -0.000597712544783 0
-0.00903562726748 -0.00108466951287 0
-0.0094201986633 -0.0017199422416 0
-0.00934579840776 -0.00239536961388 0
-0.0085947206354 -0.0030336576189 0
-0.00677722203861 -0.00329358153395 0
-0.00399215098123 -0.00272223454682 0
-0.0113388084303 -0.00599447324027 0
0.0113571687046 -0.00592349681257 0
-0.013669913505 -0.0252062567282 0
-0.00444951463128 -0.0457685880008 0
0.00942139993905 -0.0405192764553 0
0.0134190075471 -0.0222807085261 0
-0.00802031813538 -0.00282247100488 0
0.00806234002125 -0.00283075485517 0
-0.0114499174634 -0.0161859648373 0
-0.0105086374706 -0.052115550551 0
0.00268892549984 -0.0657848818743 0
0.0117547459453 -0.0464676629711 0
-0.00831507942119 -0.00690342535995 0
0.00836702487559 -0.00693458758929 0
-0.0109231858043 -0.0331503587537 0
-0.00490720418125 -0.0738461917729 0
0.00740423899514 -0.0679550054919 0
0.00832476750371 -0.0146492545761 0
0.00969091640867 -0.0348430885491 0
-0.00897796498511 -0.0537717281207 0
-0.000471244795179 -0.0833211831305 0
-0.00603901576995 -0.00157621303173 0
0.00608862845289 -0.00158609467661 0
0.00999998636295 -0.00262963132834 0
-0.00996734919999 -0.00262599259145 0
-0.00637211860907 -0.0127143417868 0
0.0112651761151 -0.0171935043264 0
-0.00595693798445 -0.00444433723923 0
0.00593451512118 -0.00440268847302 0
-0.00688505656273 -0.0705810318297 0
0.00329190255436 -0.0822446193256 0
0.00318298136801 -0.0381654188868 0
-0.0100731034758 -0.0323271019612 0
-0.00673674495149 -0.0233110943939 0
-0.0129145116596 -0.0120750170353 0
0.00751307175227 -0.064584532251 0
0.0121086830408 -0.0103687069602 0
0.00614002650846 -0.0233981740272 0
0.00525851172221 -0.00939900482024 0
-0.00553943190678 -0.00281953903556 0
0.00558951068659 -0.00282105837391 0
0.0132669354476 -0.0293630006084 0
0.007339868061 -0.0519847204113 0
-0.00502259475212 -0.00812169014419 0
0.0122117094602 -0.0116617608023 0
-0.00176590369749 -0.0641609758096 0
-0.0127658598074 -0.0395431882065 0
-0.00809923313998 -0.00261638187993 0
0.00801984317872 -0.00258097097978 0
0.00583276697569 -0.0193424951149 0
-0.00927746584556 -0.012788157834 0
-0.0020334181084 -0.0220860007498 0
-0.00660750894401 -0.0416777133034 0
-0.00264299152275 -0.0874115094763 0
-0.00985094284844 -0.00438327805122 0
0.00996887936865 -0.0045328207889 0
0.004734646777 -0.0815756464242 0
-0.00803285402466 -0.00154863837182 0
0.00807752225912 -0.00155966607543 0
0.00404259873623 -0.0148193369912 0
-0.0114275474803 -0.00950459139125 0
-0.0105148464263 -0.00596858243548 0
-0.00912209419908 -0.00733105097289 0
0.00135831962809 -0.0895557225876 0
-0.00606237988094 -0.0681341233717 0
-0.00432238275973 -0.0830201467688 0
0.00476234976232 -0.00645424812196 0
0.00773058227604 -0.0555318506833 0
-0.0133622963225 -0.0249504107408 0
-0.00700327267764 -0.056387411563 0
-0.0036950718987 -0.0176036890833 0
0.0112336421693 -0.0214418839796 0
0.00442078807009 -0.0313147392644 0
-0.00404055517943 -0.00604612698756 0
-0.00567529607238 -0.0162252522337 0
0.0101674221767 -0.053923979394 0
0.0130429357735 -0.0333830554293 0
0.0083792515253 -0.0019855828757 0
-0.00836500542412 -0.00197582196705 0
-0.00486455796286 -0.055222626664 0
-0.00349958206089 -0.0320270414964 0
-0.000954171203193 -0.0933891135296 0
0.00950143555363 -0.00193909800942 0
-0.00946292561795 -0.00192738613804 0
0.00475547056568 -0.0779952106029 0
-0.00308840015163 -0.011190037701 0
0.0104238065547 -0.00554139690382 0
0.00472675218242 -0.0422200400508 0
0.013529230207 -0.0187425143266 0
0.00317159553878 -0.0893682272831 0
-0.00460983817001 -0.00386314511094 0
0.00447551372285 -0.00394436594943 0
-0.00514262560629 -0.000926132321591 0
0.00519563625287 -0.000938890667679 0
0.0100421809992 -0.0106246961562 0
0.0104909406645 -0.00678569427062 0
0.00545483812415 -0.0691428092447 0
0.000950716002445 -0.0539801166683 0
-0.0121506728241 -0.0386037704456 0
0.0106387374063 -0.0256804618681 0
-0.0110529926338 -0.0232964429719 0
0.00857537225525 -0.00741939052625 0
-0.00756003420427 -0.0649039499945 0
-0.00490356006442 -0.00195176679477 0
0.00495719184373 -0.00195957933657 0
0.00209065442791 -0.0192189424353 0
-0.00820717600484 -0.00423511005471 0
0.00824586625838 -0.00422839558463 0
-0.0091677575727 -0.0104352898487 0
-0.00459140984437 -0.0782717375938 0
-0.00603976118807 -0.030233413202 0
0.00476919057563 -0.0650740032608 0
-0.0126779265073 -0.0156515958152 0
0.00319952993742 -0.00803451615897 0
0.00724145318915 -0.0130050080872 0
-0.00944564508352 -0.00278124989909 0
0.00949402947716 -0.002790230038 0
0.00274638369779 -0.0110094637882 0
0.00223004102196 -0.0196373326699 0
-0.0086254662761 -0.0174346481534 0
-0.00220392490636 -0.0232618699914 0
0.00402599938325 -0.00522975769359 0
0.0134342406316 -0.0149942437311 0
-0.0132464862809 -0.0158746177418 0
-0.00939799531372 -0.05883079679 0
0.00182654995837 -0.0770854596607 0
-0.0101628840601 -0.00348893236965 0
0.010170789467 -0.00346955590532 0
0.0108277954486 -0.0432256314193 0
0.0125348247311 -0.0405231582151 0
-0.00682218732321 -0.00224342442079 0
0.00686890288899 -0.00225084225585 0
0.0113197194444 -0.0156403139002 0
0.00664963551068 -0.0325600724955 0
-0.0119319316628 -0.023103448397 0
0.0123580548319 -0.00910543130262 0
-0.00119831839377 -0.0364361339462 0
0.00968650283943 -0.0582550924654 0
-0.00830628232931 -0.0429345378697 0
-0.00636349211778 -0.00598045945249 0
0.00961875671147 -0.00214006101052 0
-0.00959214974436 -0.00212792675068 0
-0.00676695657439 -0.00335282176928 0
0.00687031184603 -0.00333317441509 0
-0.010245003341 -0.0437065186552 0
-0.00248215316854 -0.0785195742579 0
-0.0069381665559 -0.00102660181659 0
0.00698571540927 -0.00103942237689 0
-0.00306628375311 -0.0897638756013 0
-0.0101702497993 -0.00651218184372 0
0.00453012001647 -0.0543743154229 0
-0.0123285538155 -0.00926736781795 0
0.00650089772045 -0.00381526452951 0
0.00962421122849 -0.0539222634787 0
-0.00435107431181 -0.08093359237 0
-0.00330824961367 -0.0082168826388 0
-0.00977000360992 -0.0473389766243 0
-0.00436408842058 -0.0634561317469 0
3.07065792515e-05 -0.0951792799713 0
0.00222762200084 -0.0926540293266 0
-0.00470388518274 -0.0028633330746 0
0.00475818525357 -0.00286622166833 0
-0.00211859896336 -0.0135996447376 0
0.00637040194928 -0.00722524299028 0
0.00423299107272 -0.0550995835334 0
-0.00397959475474 -0.00496733060568 0
0.00191803792976 -0.0259001888837 0
-0.013066620017 -0.0322068907636 0
0.0069710362215 -0.00563996271895 0
-0.004606894708 -0.0637795652742 0
-0.00594197883237 -0.0024837307575 0
-0.00867171168651 -0.0304124220999 0
0.00509844644685 -0.0770598705407 0
0.00442309499565 -0.0738109377792 0
0.00654363830144 -0.00260818615242 0
-7.22631968554e-05 -0.0719510086737 0
-0.0112942824374 -0.0486017709739 0
-0.00442463116262 -0.00114288286281 0
0.00443740156249 -0.00114595109853 0
-0.00723537609208 -0.00985118044221 0
0.00761088544727 -0.0104284324993 0
0.0138307474594 -0.0276169398849 0
-0.00639292283599 -0.00383266687953 0
0.00712483995796 -0.0697780351811 0
-0.00602719694097 -0.0741784896625 0
0.0122889925357 -0.0290623585085 0
-0.0136611865253 -0.0182917412472 0
0.00661201938566 -0.0178946821433 0
0.00710779401144 -0.0450958385669 0
-0.00877271101378 -0.00226856675043 0
0.00881349271296 -0.00227617679093 0
-0.00902662336626 -0.0206062999831 0
0.00945420342301 -0.026513890015 0
-0.00319037990158 -0.0435299993546 0
-0.010267223342 -0.00355901177799 0
-0.0024068638434 -0.092019638085 0
0.0103048437231 -0.00356205141695 0
0.00897465618047 -0.00148714095647 0
-0.00893450937803 -0.00147348370239 0
0.0085577797382 -0.0429110712068 0
0.00626299096246 -0.00743889167092 0
0.00527433921574 -0.0123383568549 0
-0.00548726243736 -0.00841396250458 0
0.00375565437617 -0.086294553331 0
0.0119538390244 -0.0125016396884 0
1.07004718156e-05 -0.00985794865924 0
0.0093396674303 -0.00541614008066 0
0.0118336793763 -0.0344665009812 0
-0.0104072393773 -0.00489366219827 0
-0.00513152230321 -0.00165171081975 0
0.00514350788337 -0.00165938115247 0
-0.00658660049688 -0.00635302128241 0
-0.0121427147411 -0.0128170991698 0
-0.00488136571413 -0.00141730702984 0
0.00493524346233 -0.00142784302852 0
-0.00606258021355 -0.000710932975814 0
0.00611258538867 -0.00072478354589 0
-0.00271309390114 -0.0108025827273 0
-0.0092196102364 -0.0128613175948 0
-0.0113378628271 -0.00886281486601 0
-0.0133647944274 -0.0321530110944 0
-0.00217107896409 -0.0520662753395 0
0.00262955394816 -0.0111395155757 0
0.0117467132689 -0.00826905115281 0
-0.00895044169086 -0.00349651290531 0
0.0012974966821 -0.0149034818555 0
0.0089818123647 -0.00340947759374 0
0.0130483486931 -0.0160166202701 0
0.00841186212345 -0.0595966149619 0
0.00102956365492 -0.0378218842424 0
0.000450029624442 -0.0644362392061 0
-0.0120060330817 -0.0452008438082 0
0.00325608622283 -0.00683356431912 0
-0.00583418787204 -0.00216533930223 0
0.00588391407636 -0.00217224545091 0
-0.00398453188662 -0.0754562638577 0
-0.00368792473133 -0.0845700088378 0
0.0130158294311 -0.0383106430815 0
-0.00683398924794 -0.00164155309529 0
0.00688155101425 -0.00165095684987 0
-0.00957094174804 -0.00249024953373 0
0.00959099334161 -0.00249514488185 0
0.00104147336334 -0.0987138028512 0
0.00360027453432 -0.0747551250134 0
-0.00111061096432 -0.0196383014338 0
-0.00483827076289 -0.000545260937743 0
0.00489246598787 -0.000559572462223 0
0.00963762085293 -0.0472373577957 0
-0.00848664720047 -0.0633666199771 0
0.00209783187493 -0.00960599094406 0
-0.00856389704967 -0.00540895493429 0
0.0128546450237 -0.0221509518438 0
-0.00573056579053 -0.00342455333058 0
0.00866571059438 -0.0216339909606 0
0.00588614236434 -0.00348771841553 0
-0.000400661888591 -0.0271274456278 0
0.00546670908576 -0.0612975085386 0
0.0068532516819 -0.0362672641242 0
-0.00872083298071 -0.0554421290183 0
0.00428873993664 -0.00931526471003 0
-0.0125527669913 -0.0204589236598 0
-0.00711958326145 -0.00497100152981 0
0.0107025922695 -0.00476318582778 0
0.00370473135834 -0.00458837849274 0
-0.0122117222177 -0.0393610436199 0
-0.00286708209689 -0.0704342379372 0
-0.0138126290388 -0.0282736029205 0
-0.00270646162496 -0.00720068074647 0
-0.00818647154074 -0.0604299699805 0
0.000780521857894 -0.084538221087 0
-0.00494794273179 -0.054372966266 0
-0.0058845271671 -0.0154343663506 0
-0.00338116706163 -0.0880249654011 0
-0.00622541633323 -0.0652752499215 0
-0.00771303865647 -0.00104690990866 0
0.00775834969697 -0.00106053295166 0
0.0075484519132 -0.0587167180947 0
0.0089990385475 -0.0311061892744 0
0.00467240421662 -0.00146707345892 0
-0.0106178203872 -0.012835182305 0
-0.00200561983788 -0.00956406020147 0
-0.0106754471499 -0.00539158511375 0
-0.00678374988772 -0.00725258351845 0
-0.0123633778145 -0.0298759788801 0
-0.0122485424603 -0.0282392263656 0
-0.00965425963171 -0.00806370107022 0
-0.00441378755331 -0.00139256454841 0
-0.000606315146342 -0.0377963062683 0
-0.00165633050746 -0.0506028963831 0
-0.00148631761052 -0.0968992479943 0
0.0116139946757 -0.0356871139172 0
-0.00789642684709 -0.00210194385101 0
0.0079427634633 -0.00210883892609 0
0.00881613334604 -0.00217705776616 0
-0.00879778280661 -0.00216496601563 0
0.0107825255529 -0.0054274357693 0
-0.000273737436941 -0.0449778533181 0
0.00337705347647 -0.0855640488222 0
-0.00411148665776 -0.00336594720874 0
0.00414758079088 -0.00339311004564 0
-0.012151825037 -0.00893253277659 0
-0.00120583677667 -0.0163112135079 0
0.00296044294768 -0.0914659014932 0
0.00509614099632 -0.0053786168894 0
-0.0079280357708 -0.0473419524751 0
-0.00220302322977 -0.0847473623337 0
0.00197292439163 -0.0504428334523 0
-0.00439522718511 -0.00243135364756 0
0.00445032222506 -0.00243659114466 0
0.00784158975561 -0.0301784170659 0
0.011300533251 -0.00920140512732 0
-0.00389520859273 -0.0697666452274 0
0.00847185419407 -0.0213696842687 0
0.0100766181927 -0.00663046953438 0
0.00990845396686 -0.0177636303464 0
0.00258102189818 -0.0623709593447 0
-0.010074099965 -0.011251036665 0
0.0078612492782 -0.00816160525156 0
-0.00694728379769 -0.0578099949794 0
-0.000304766074658 -0.0892333844392 0
-0.00501326324128 -0.00511539007714 0
-0.00349249465024 -0.0807387401109 0
-0.00550582504861 -0.00970546037038 0
0.00958207271018 -0.00820360059175 0
0.00126937642576 -0.0306854236916 0
0.0107798104945 -0.00437653405573 0
0.00129319863922 -0.0126679978159 0
-0.00394072179781 -0.0360157348727 0
0.0110608295305 -0.0510396214863 0
-0.0127648341145 -0.0204946080456 0
-0.0088782808841 -0.0363110518922 0
0.00045259848659 -0.0176286315283 0
0.00724686610369 -0.00470615387174 0
-0.0107528533094 -0.00438098520229 0
0.00397297685105 -0.0303015398743 0
0.000483571412783 -0.0313255484744 0
-0.004268135563 -0.0206820770609 0
0.0094046557155 -0.0016400922108 0
-0.00936759492813 -0.00162495643091 0
0.00628992392425 -0.0740697544185 0
0.012201922492 -0.040490030979 0
-0.00481619983977 -0.0264858166636 0
0.0138110428123 -0.0189390444998 0
-0.00874273994929 -0.00365226292352 0
-0.00322947775058 -0.00569683399646 0
-0.00491181198165 -0.00348631053398 0
0.00230380866688 -0.0880029222283 0
-0.00603922284598 -0.0721127544712 0
-0.00536412235058 -0.0776733747156 0
-0.0015206714882 -0.0120895185936 0
-0.00900060147037 -0.0253406829549 0
-0.00509786122313 -0.00244432884484 0
-0.00438372017447 -0.0129332311697 0
0.00515071731274 -0.00244936588683 0
0.0100096847878 -0.0137389499561 0
-0.00219570202903 -0.0617400537877 0
-0.000500972813506 -0.0976977107269 0
0.00644360244061 -0.0706132222677 0
-0.0112958206838 -0.00744771464052 0
-0.00827029575057 -0.0249212733985 0
0.0112487860819 -0.0451468107581 0
0.0125561481388 -0.0239860931716 0
0.0124883230434 -0.0188344935756 0
0.00542661004755 -0.0588879877947 0
0.0042353016405 -0.0830909078184 0
-0.00610070799589 -0.0195395470745 0
0.00482235950782 -0.00455816992123 0
-0.0129643152518 -0.012321259186 0
0.00225626041288 -0.0953193852675 0
-0.0116344813241 -0.00682268302846 0
0.00507712056122 -0.00353595508469 0
-0.00522913840488 -0.00672502541501 0
-0.00493089010627 -0.00324934009955 0
0.00501901670372 -0.00339004637096 0
0.00469917279035 -0.0463077832476 0
-0.00454072384338 -0.0010412223737 0
0.00459600631428 -0.00105345122631 0
0.00348694738282 -0.0793209319928 0
-0.00370185737948 -0.00450378492926 0
-0.0097818382497 -0.00239353660586 0
0.00981762074129 -0.00240159411753 0
0.0132321822988 -0.0144352428096 0
0.00562568757075 -0.0485937594553 0
0.00642616579959 -0.0147215579317 0
-0.00391462800077 -0.00950123132033 0
0.00258758029475 -0.0587675868402 0
-0.00253263663864 -0.00628369075485 0
0.00926849419415 -0.058688020697 0
-0.00623270071373 -0.07082316096 0
-0.0110904427307 -0.046438421199 0
-0.0108274120224 -0.0472299482991 0
-0.00131781679162 -0.076852590326 0
-0.00544574280866 -0.000434518661841 0
0.00549775738305 -0.000449326306886 0
-0.0139415441346 -0.0223284274125 0
0.004244067319 -0.017650759412 0
-0.0064531516589 -0.00276904779693 0
-0.00315342509475 -0.0822755645227 0
0.00650790923024 -0.00277441877574 0
0.00378341280955 -0.00930360041984 0
0.00223015099668 -0.0824245832285 0
-0.0123306196448 -0.0121753707227 0
-0.0105461399084 -0.0392321829975 0
0.0104746304811 -0.00864647404514 0
-0.00783296990979 -0.0654516688299 0
-0.00541447326133 -0.00135232779998 0
0.00546637476204 -0.00136321358598 0
0.0128725049847 -0.0116923329677 0
0.00816620009807 -0.00213192694706 0
-0.0081743622742 -0.00213446041708 0
0.00484113480703 -0.00764245202458 0
0.00141542960096 -0.0707462063934 0
-0.0107825637403 -0.0523970605692 0
0.00980180472641 -0.0111249090911 0
0.00997788352674 -0.0187558601018 0
-0.00931655300733 -0.00215965884614 0
0.00933764917032 -0.00216932637829 0
-0.00807544194204 -0.00846546440196 0
-0.00411653783449 -0.00487795613623 0
0.0029951587297 -0.00610609206919 0
0.0117306293421 -0.00805364025348 0
0.00330177301151 -0.0721946044886 0
-0.00780249590784 -0.00343390926131 0
-0.00360738528913 -0.0203490855053 0
0.00783854107192 -0.00342632802815 0
0.0113496021268 -0.0123705339128 0
-0.00231306377962 -0.0948598800605 0
0.0070157729614 -0.0663936024042 0
0.0049605177289 -0.00431939582058 0
6.9704647986e-05 -0.023028759498 0
0.0115654177004 -0.00663034370325 0
0.00530034388111 -0.0266129664083 0
0.0135641304174 -0.0273012807347 0