# vtk DataFile Version 2.0
Generated with Solid Solver
ASCII
DATASET UNSTRUCTURED_GRID
POINTS 856 float 
0.0 3.5 0.0
1.6 3.5 0.0
1.6 4.0 0.0
0.0 4.0 0.0
0.0695652173912 3.5 0.0
0.139130434782 3.5 0.0
0.208695652174 3.5 0.0
0.278260869565 3.5 0.0
0.347826086956 3.5 0.0
0.417391304347 3.5 0.0
0.486956521738 3.5 0.0
0.556521739129 3.5 0.0
0.62608695652 3.5 0.0
0.695652173911 3.5 0.0
0.765217391302 3.5 0.0
0.834782608694 3.5 0.0
0.904347826085 3.5 0.0
0.973913043477 3.5 0.0
1.04347826087 3.5 0.0
1.11304347826 3.5 0.0
1.18260869565 3.5 0.0
1.25217391304 3.5 0.0
1.32173913043 3.5 0.0
1.39130434783 3.5 0.0
1.46086956522 3.5 0.0
1.53043478261 3.5 0.0
1.6 3.56430812594 0.0
1.6 3.62270835268 0.0
1.6 3.6757434324 0.0
1.6 3.7239062376 0.0
1.6 3.76764438351 0.0
1.6 3.80736436404 0.0
1.6 3.84343531219 0.0
1.6 3.87619247117 0.0
1.6 3.90594026707 0.0
1.6 3.93295517284 0.0
1.6 3.95748825478 0.0
1.6 3.97976750982 0.0
1.58000000587 4.0 0.0
1.55999996633 4.0 0.0
1.54000002214 4.0 0.0
1.51999997198 4.0 0.0
1.50000000455 4.0 0.0
1.48000000216 4.0 0.0
1.45999997931 4.0 0.0
1.44000002484 4.0 0.0
1.41999997044 4.0 0.0
1.40000002096 4.0 0.0
1.37999999963 4.0 0.0
1.35999999626 4.0 0.0
1.34000002179 4.0 0.0
1.31999997343 4.0 0.0
1.3000000318 4.0 0.0
1.27999998783 4.0 0.0
1.26000000202 4.0 0.0
1.24000001295 4.0 0.0
1.21999998074 4.0 0.0
1.20000003685 4.0 0.0
1.17999998163 4.0 0.0
1.16000001473 4.0 0.0
1.14000000469 4.0 0.0
1.11999999139 4.0 0.0
1.10000003625 4.0 0.0
1.07999997877 4.0 0.0
1.06000002802 4.0 0.0
1.04000000338 4.0 0.0
1.02000000764 4.0 0.0
1.00000002986 4.0 0.0
0.979999980237 4.0 0.0
0.960000035522 4.0 0.0
0.939999990881 4.0 0.0
0.920000014619 4.0 0.0
0.900000017903 4.0 0.0
0.879999986222 4.0 0.0
0.860000037278 4.0 0.0
0.839999982352 4.0 0.0
0.820000022783 4.0 0.0
0.800000000002 4.0 0.0
0.779999977222 4.0 0.0
0.760000017652 4.0 0.0
0.739999962726 4.0 0.0
0.720000013782 4.0 0.0
0.699999982101 4.0 0.0
0.679999985385 4.0 0.0
0.660000009123 4.0 0.0
0.639999964482 4.0 0.0
0.620000019766 4.0 0.0
0.599999970141 4.0 0.0
0.57999999236 4.0 0.0
0.559999996622 4.0 0.0
0.539999971983 4.0 0.0
0.520000021235 4.0 0.0
0.499999963756 4.0 0.0
0.480000008612 4.0 0.0
0.459999995315 4.0 0.0
0.439999985272 4.0 0.0
0.420000018371 4.0 0.0
0.39999996315 4.0 0.0
0.380000019261 4.0 0.0
0.359999987052 4.0 0.0
0.339999997986 4.0 0.0
0.320000012172 4.0 0.0
0.299999968206 4.0 0.0
0.280000026575 4.0 0.0
0.259999978213 4.0 0.0
0.240000003742 4.0 0.0
0.220000000371 4.0 0.0
0.199999979041 4.0 0.0
0.180000029557 4.0 0.0
0.159999975162 4.0 0.0
0.140000020694 4.0 0.0
0.119999997846 4.0 0.0
0.0999999954514 4.0 0.0
0.0800000280232 4.0 0.0
0.0599999778571 4.0 0.0
0.0400000336732 4.0 0.0
0.0199999941324 4.0 0.0
0.0 3.97976750982 0.0
0.0 3.95748825478 0.0
0.0 3.93295517284 0.0
0.0 3.90594026707 0.0
0.0 3.87619247117 0.0
0.0 3.84343531219 0.0
0.0 3.80736436404 0.0
0.0 3.76764438351 0.0
0.0 3.7239062376 0.0
0.0 3.6757434324 0.0
0.0 3.62270835268 0.0
0.0 3.56430812594 0.0
0.249757905714 3.75212552678 0.0
1.35000000902 3.74954526597 0.0
0.488714190926 3.75947467509 0.0
0.727445026698 3.75983525744 0.0
0.962900270309 3.76055270856 0.0
1.17161197633 3.81755162829 0.0
0.130754031542 3.86878251069 0.0
1.46924596846 3.86878251069 0.0
0.369913852535 3.84868154079 0.0
0.603236233099 3.84763103091 0.0
0.843402107212 3.84736931152 0.0
1.05041705507 3.86611282467 0.0
0.250539323282 3.87785527135 0.0
1.34882231626 3.87787871523 0.0
0.468661896861 3.89189320321 0.0
0.704258117309 3.89639128976 0.0
0.94963922804 3.89654080835 0.0
1.25000000748 3.89875296068 0.0
1.12879020517 3.91059303421 0.0
0.548928478218 3.91905583534 0.0
0.7889268651 3.91906062813 0.0
0.0712526194949 3.93011432704 0.0
1.52874738051 3.93011432704 0.0
1.4740071133 3.74293106904 0.0
0.125992886699 3.74293106904 0.0
0.329956761073 3.92118145982 0.0
1.09412206522 3.66725831207 0.0
0.190000004299 3.92542384899 0.0
1.41098423528 3.92728100222 0.0
0.629999992124 3.92414139091 0.0
0.87000001175 3.92414140592 0.0
0.853391941071 3.71944243214 0.0
0.610032822379 3.72536074396 0.0
0.41090315692 3.92892991009 0.0
0.370435019193 3.7251305208 0.0
1.01000001875 3.93130199947 0.0
1.22823348571 3.68694249365 0.0
1.18894423177 3.93487447818 0.0
1.31063576122 3.93502724255 0.0
0.129927636183 3.94112156482 0.0
1.47007236382 3.94112156482 0.0
1.07646504896 3.76194504855 0.0
1.07000000339 3.94017719684 0.0
0.270000002394 3.93875928556 0.0
1.26759839792 3.80243333593 0.0
0.770332946246 3.83880063275 0.0
0.530342720064 3.83880306325 0.0
0.189898092614 3.63474333735 0.0
1.4101772205 3.6313147556 0.0
0.942883893479 3.62966700486 0.0
0.510631148905 3.62429064243 0.0
0.754670889573 3.63369080225 0.0
0.489999986184 3.94463854908 0.0
0.732500655853 3.9452729887 0.0
0.193627936713 3.81528931126 0.0
1.40183871842 3.81461096917 0.0
0.928721275957 3.94715071018 0.0
0.0604617896557 3.86281267064 0.0
1.53953821034 3.86281267065 0.0
1.25036152032 3.94913766834 0.0
0.30096552553 3.81141484704 0.0
0.297089357677 3.66359682597 0.0
0.394212311705 3.61316974741 0.0
0.831051681923 3.94633984116 0.0
0.592085081305 3.94901138542 0.0
0.669405291514 3.95495209798 0.0
1.3611855791 3.94637621082 0.0
0.928496698914 3.82436133158 0.0
0.444093171593 3.8271987226 0.0
0.683378885111 3.8234871366 0.0
0.372430737197 3.95235208784 0.0
1.19348789949 3.87019408468 0.0
1.15124363553 3.95467023547 0.0
0.229287653728 3.96038323295 0.0
0.646635519079 3.61231195482 0.0
0.986819459779 3.84973028271 0.0
1.11214815433 3.84770266014 0.0
1.50610225987 3.6604664246 0.0
0.0938977401332 3.6604664246 0.0
0.531976760298 3.96138656711 0.0
0.451361041931 3.96112773652 0.0
0.771976835888 3.96138886125 0.0
1.53311213884 3.79435404356 0.0
0.066887861162 3.79435404356 0.0
0.970836553066 3.9620233382 0.0
0.311702426505 3.96111572975 0.0
1.31698094247 3.6658628839 0.0
1.11177843379 3.95948388532 0.0
1.15003411964 3.72957279566 0.0
0.890058924798 3.96133576813 0.0
0.169108880648 3.96040269401 0.0
1.42850737314 3.96465656678 0.0
0.0426347993992 3.9610175717 0.0
1.5573652006 3.9610175717 0.0
1.28993057938 3.85776473604 0.0
1.34652710411 3.82072629166 0.0
0.897316840472 3.87585124602 0.0
0.814484972147 3.79171515708 0.0
0.573290986674 3.7879873938 0.0
1.02164717476 3.69631051635 0.0
0.41798215839 3.87594988344 0.0
1.18469655214 3.6045863568 0.0
0.657426542805 3.87734841349 0.0
0.0893439701605 3.9657484063 0.0
1.51065602984 3.9657484063 0.0
0.850202761783 3.61862953305 0.0
0.185775988195 3.86980628439 0.0
1.41422401181 3.86980628439 0.0
0.305957202498 3.87340573583 0.0
0.629999992124 3.96272981278 0.0
0.686026569054 3.68766751472 0.0
1.03220081924 3.96436031967 0.0
0.445441337222 3.69456289967 0.0
1.33308537187 3.96770341358 0.0
1.0249206042 3.60512275769 0.0
0.128645746764 3.81165411571 0.0
1.47135425324 3.81165411571 0.0
1.29077706219 3.96625078806 0.0
1.21302440104 3.96491551313 0.0
0.373320303365 3.89968789902 0.0
0.409457647309 3.96502881891 0.0
1.39076199588 3.96614348387 0.0
1.2156032112 3.76624353786 0.0
0.383301616321 3.78976397621 0.0
0.593246012246 3.8948346816 0.0
0.833004203108 3.89475034107 0.0
0.187583903859 3.70688411961 0.0
1.41241609614 3.70688411961 0.0
1.08573330585 3.89673930733 0.0
1.04303343403 3.81530385578 0.0
0.103644791029 3.90516202075 0.0
1.49635520897 3.90516202075 0.0
1.23586605501 3.85112068621 0.0
0.921814270996 3.70213058021 0.0
0.532219762185 3.7029333087 0.0
1.28217045716 3.7375098981 0.0
0.779621693208 3.70806977531 0.0
0.998890529268 3.88397615296 0.0
0.659406618131 3.76469373474 0.0
0.230043799244 3.91599372373 0.0
1.53690667654 3.72637971331 0.0
0.0630933234627 3.72637971331 0.0
0.153148105836 3.90639761309 0.0
1.4478092366 3.90500627713 0.0
0.512139854501 3.90538519137 0.0
0.750930702019 3.90340708 0.0
0.0409150717909 3.90046251393 0.0
1.55908492821 3.90046251393 0.0
0.702096631597 3.96656725638 0.0
0.246204062466 3.82734823738 0.0
0.872012730916 3.80079945556 0.0
0.313419524246 3.75328100976 0.0
1.26305184675 3.57725747237 0.0
1.04341944162 3.90846795586 0.0
0.697725469476 3.93030230037 0.0
0.27003033309 3.96477332623 0.0
0.632456188669 3.80120134001 0.0
0.55988813035 3.96676596088 0.0
0.798125231733 3.9668778541 0.0
0.861599835739 3.96514225679 0.0
0.130196681328 3.96566148827 0.0
1.46980331867 3.96566148827 0.0
0.337465698618 3.96873835045 0.0
1.10690030388 3.57445060302 0.0
1.07038768144 3.96631210642 0.0
0.201908835349 3.96783542832 0.0
1.17640357301 3.96795841043 0.0
0.482502283815 3.8454083814 0.0
1.37723451734 3.90442225885 0.0
0.722497886517 3.84543272537 0.0
0.254749007352 3.57960328731 0.0
0.449206209982 3.91785378051 0.0
0.907803563184 3.91575967116 0.0
0.997592319531 3.96832081731 0.0
1.3597087328 3.59165409162 0.0
0.797785363131 3.87112617582 0.0
0.557788209884 3.87112741711 0.0
0.133223775006 3.57024633267 0.0
1.46673023696 3.57019175074 0.0
0.296361477075 3.90524448543 0.0
1.29555045611 3.90092076583 0.0
1.11951450862 3.79592056714 0.0
0.341558640376 3.57546927501 0.0
0.974255514016 3.92370320024 0.0
0.664786082443 3.91707165091 0.0
1.1442561544 3.86460464827 0.0
0.430695849932 3.74774845865 0.0
1.22439218721 3.92431164104 0.0
0.917330800791 3.76752811157 0.0
0.0995806821614 3.83759752714 0.0
1.50041931784 3.83759752714 0.0
0.586492545959 3.6571718064 0.0
1.16809690663 3.90376349956 0.0
0.490525946651 3.9687439861 0.0
0.170108846494 3.77025381333 0.0
0.726723612771 3.96611364881 0.0
1.42998397347 3.77014833166 0.0
1.55978981314 3.82099569701 0.0
0.0402101868575 3.82099569701 0.0
1.10043652243 3.92805072974 0.0
1.34111814411 3.91924529479 0.0
1.27430066613 3.93505265881 0.0
0.56431092584 3.57086686051 0.0
0.930516510487 3.96969091611 0.0
1.17713743504 3.67180033503 0.0
0.801256410508 3.5635758738 0.0
1.37979186382 3.84566323689 0.0
1.02277822921 3.7577258162 0.0
0.252009847995 3.68167957306 0.0
0.0497138210057 3.58866012032 0.0
1.55028617899 3.58866012032 0.0
0.466046622144 3.57331739513 0.0
0.343019074867 3.81481221655 0.0
0.0645235269233 3.96909610548 0.0
1.53547647308 3.96909610548 0.0
0.0310141903995 3.92955737583 0.0
[...]
POINT_DATA 856
VECTORS Displacement float
0.0 0.0 0
0.0 0.0 0
0.000349512518368 0.000666525203364 0
-0.000315758653982 0.000676683331668 0
0.0 0.0 0
0.0 0.0 0
0.0 0.0 0
0.0 0.0 0
0.0 0.0 0
0.0 0.0 0
0.0 0.0 0
0.0 0.0 0
0.0 0.0 0
0.0 0.0 0
0.0 0.0 0
0.0 0.0 0
0.0 0.0 0
0.0 0.0 0
0.0 0.0 0
0.0 0.0 0
0.0 0.0 0
0.0 0.0 0
0.0 0.0 0
0.0 0.0 0
0.0 0.0 0
0.0 0.0 0
0.00085713424581 -0.000472723410553 0
0.0014542689508 -0.000473682591711 0
0.00181518234745 -0.000300472483655 0
0.00191581770481 -6.07644680721e-05 0
0.00185903741188 0.000159857312974 0
0.0016986418268 0.000348282877463 0
0.00147569790156 0.000484992485142 0
0.00124759038264 0.00057814949782 0
0.00102060065275 0.000633835555475 0
0.000814436010015 0.000657062143205 0
0.000635926155225 0.000666087013187 0
0.000482924422052 0.000667111916751 0
0.000350099027497 0.00053523271046 0
0.000350362520641 0.000409570753828 0
0.000345807929376 0.000290977348913 0
0.000333500278178 0.000179082789494 0
0.000310640573336 7.18048669578e-05 0
0.000275081075295 -3.67677010401e-05 0
0.000224679425891 -0.000144223985351 0
0.000159461421934 -0.000262514477544 0
7.60514083956e-05 -0.000388619364655 0
-2.06162189151e-05 -0.000533698962147 0
-0.000137607275369 -0.000692842356342 0
-0.00027079252976 -0.00088139523926 0
-0.00042712021074 -0.00109686389183 0
-0.000599955472759 -0.00134907931937 0
-0.000784803498428 -0.00164003941954 0
-0.000998469439191 -0.0019746496641 0
-0.0012220233899 -0.00235851627371 0
-0.00145766754103 -0.00280563026284 0
-0.00171777394113 -0.00332032357547 0
-0.00200769090699 -0.00390505733103 0
-0.00230008102835 -0.00458424471122 0
-0.00262684110181 -0.00536429267966 0
-0.00294320121874 -0.00626005942563 0
-0.00326551249352 -0.00729576338888 0
-0.00361863168438 -0.00847226267048 0
-0.00395539795953 -0.00983310097204 0
-0.00433095163326 -0.0114364069129 0
-0.00464410804193 -0.0133044880984 0
-0.00496962885222 -0.0156134657062 0
-0.00510975394693 -0.0184451799469 0
-0.00479833051995 -0.0225949602745 0
-0.00431469706028 -0.0265805785743 0
-0.00375456230995 -0.0300580909105 0
-0.00310290188065 -0.033039779686 0
-0.00251091626112 -0.0355636211026 0
-0.00191510811506 -0.0376252993998 0
-0.00138391370001 -0.0392310809572 0
-0.000854336873543 -0.0403777332012 0
-0.000361472189446 -0.0410634425032 0
9.8387282866e-05 -0.0412937566095 0
0.000509314791235 -0.0410711191684 0
0.000979276945781 -0.0403835606192 0
0.00146138068597 -0.0392384822663 0
0.00201596618995 -0.0376396793997 0
0.00257829291061 -0.0355734367176 0
0.00317837629153 -0.0330545461648 0
0.00381407443365 -0.0300604492354 0
0.00442574147936 -0.0265993867534 0
0.00491934831439 -0.0226258179582 0
0.00518062583889 -0.0184736457307 0
0.00494936262928 -0.0155817673152 0
0.00468027710845 -0.0133168131201 0
0.0043671275301 -0.0114496410141 0
0.00400831251643 -0.00983256854395 0
0.00366954850259 -0.00845534052074 0
0.00329875422825 -0.00726789744563 0
0.00296570336776 -0.00624780818511 0
0.0026354010765 -0.00536329796392 0
0.00233742678119 -0.00458493200918 0
0.00203881407369 -0.00390657904009 0
0.00174882948349 -0.00331929582608 0
0.00149083012792 -0.00280460293276 0
0.00124681548889 -0.00236265829435 0
0.00102208245324 -0.00197398134636 0
0.000812189904358 -0.0016407734134 0
0.000628035282002 -0.00134886118161 0
0.000455690465578 -0.00110024502997 0
0.000306555708952 -0.00088150852532 0
0.000171673497797 -0.000693878766109 0
5.31220766885e-05 -0.000532816573605 0
-4.29561593103e-05 -0.000387588441515 0
-0.000125822848204 -0.00026113101784 0
-0.00019083927805 -0.000141158416626 0
-0.000241481762278 -3.24853144533e-05 0
-0.000276942392453 7.69077380325e-05 0
-0.000299752355091 0.000185205588317 0
-0.000312043914724 0.000298125707443 0
-0.000316601362241 0.000417735034615 0
-0.000316343465729 0.000544396418641 0
-0.000450177889252 0.00067726829292 0
-0.000604281969062 0.000676236248239 0
-0.000783977939712 0.000667208521373 0
-0.00099140862953 0.000644006597941 0
-0.0012197980018 0.000588436588995 0
-0.00144958520531 0.000495487982357 0
-0.00167451269708 0.000359054341475 0
-0.00183764864379 0.000170964521592 0
-0.0018980679931 -4.97388093316e-05 0
-0.00180173275474 -0.000290501448577 0
-0.0014447108269 -0.000465828768293 0
-0.000850966255174 -0.000467476591982 0
-0.00250562558252 -0.000848165786849 0
0.00253682947788 -0.000840388042558 0
-0.00403530878619 -0.00600882391969 0
-0.00194388833164 -0.0161386622439 0
0.00370862391825 -0.0128246342611 0
0.00312768363972 -0.00444760113572 0
-0.00133943961644 -6.85607223308e-05 0
0.00136609322367 -7.28427418105e-05 0
-0.00216997583335 -0.00280626722764 0
-0.00369831945036 -0.0149356110869 0
0.00125027742337 -0.024426241133 0
0.00319263710662 -0.0112860375293 0
-0.001319679161 -0.000861830057174 0
0.00134846888024 -0.000869511588468 0
-0.00172148757564 -0.00642238685174 0
-0.00196560977787 -0.0264242945084 0
0.00268348202803 -0.0217118540759 0
0.00109391871993 -0.00238668599299 0
0.00111195364569 -0.00660966247717 0
-0.00136326386987 -0.0119475665367 0
-0.000144756851721 -0.0323285719651 0
-0.000806192126856 0.000234246704547 0
0.000836421841695 0.000227633889293 0
0.00209851947309 -0.000163046920971 0
-0.00207805814985 -0.0001595835975 0
-0.000564640286132 -0.00199609874849 0
0.00369325264829 -0.00452013829177 0
-0.000731916979268 -0.000380941657286 0
0.000744218653312 -0.000374855868121 0
-0.00180892472368 -0.0209994386537 0
0.00106002006048 -0.030798741744 0
0.00138565612769 -0.0134815939683 0
-0.00378239793144 -0.00983308543148 0
-0.000277782010056 -0.00408170828914 0
-0.00332462629015 -0.00238772918137 0
0.00126145487609 -0.0163364781767 0
0.00326398313328 -0.00213199136962 0
0.000111808026524 -0.00410064236783 0
0.000410773327086 -0.00135186343438 0
-0.000663091616826 -5.29824830339e-05 0
0.000693614126728 -5.59379760672e-05 0
0.00419680741049 -0.00749776321006 0
0.000108342125998 -0.0104430415978 0
-0.000373380628328 -0.00110328448359 0
0.00264046310283 -0.00196096452104 0
-0.000809972764196 -0.0238736521346 0
-0.00355829502625 -0.00947732678491 0
-0.00191000431163 -0.000362731104072 0
0.00190275300983 -0.000363862637237 0
0.0023051659202 -0.00630188821154 0
-0.00310627513729 -0.00345506191791 0
-0.000844894458932 -0.00768233458194 0
0.00033657791453 -0.00768224224008 0
-0.00042525194736 -0.0330747648793 0
-0.00189356284417 -0.000420055572832 0
0.00194197606207 -0.000452468466416 0
0.000720806938025 -0.0276109867278 0
-0.00135604742168 0.000224315926152 0
0.00138331963421 0.000217155870735 0
-0.000110023240471 -0.00242744179261 0
-0.00233904479603 -0.00147229346931 0
-0.00266681227363 -0.00108124217188 0
-0.00266007315101 -0.00167905792667 0
0.000259504215751 -0.0349067988151 0
-0.000191697402572 -0.0169311359799 0
-0.000204816388349 -0.0279888346752 0
0.000387740055631 -0.000782161553203 0
0.00328717514345 -0.0185447815737 0
-0.00308250746601 -0.00504872593721 0
-0.0030038410739 -0.0192048746269 0
0.000334106641733 -0.00297350714332 0
0.00196024633531 -0.0038836228902 0
-0.00072765282955 -0.0055923769654 0
-0.000210655138861 -0.000708294959977 0
-0.00222991404982 -0.0052329543494 0
0.00369668521231 -0.0158500896106 0
0.00307915568275 -0.00716988996243 0
0.00184632889465 -0.000155623614599 0
-0.00183522695024 -0.000150633097733 0
0.00126217497106 -0.0106359969953 0
0.001063924167 -0.00570287903104 0
4.32735597646e-05 -0.0366596630789 0
0.00184290023089 7.28216080629e-05 0
-0.00181921160796 7.97729661303e-05 0
-0.00031684379875 -0.0227085251863 0
0.000210710152045 -0.00172400685101 0
0.00261067309434 -0.000973134077998 0
-0.00109147974023 -0.00761235966767 0
0.0038803735771 -0.00427401250219 0
-9.27308370246e-07 -0.0329906661562 0
-0.000412543852438 -0.000273275268703 0
0.000398387183271 -0.000292363608554 0
-0.000576376729996 0.000400768162452 0
0.000608188579281 0.000392725504863 0
0.00178274696252 -0.00161861172097 0
0.0020607258823 -0.000890037417319 0
0.00233491040765 -0.0245269313307 0
0.000441669863168 -0.0198045831264 0
-0.0041751905769 -0.0107148000688 0
0.00384217615173 -0.00750644929326 0
-0.00185473724286 -0.00426039476542 0
0.00258052521447 -0.00176355185212 0
-0.00297180718696 -0.0211126797311 0
-0.000513716386278 0.000144509219257 0
0.000545802655571 0.000138872740627 0
0.000878544147323 -0.00664829136133 0
-0.00136251958614 -0.00034978631903 0
0.00138787513578 -0.000348578339402 0
-0.00148131350355 -0.00155954132989 0
0.000446830009401 -0.0228922804409 0
-0.00247160130768 -0.0101560548265 0
-0.00125637876212 -0.014074632741 0
-0.00373767614226 -0.00364717576512 0
-3.77253856565e-05 -0.00110588418565 0
0.00264724629124 -0.00387143693809 0
-0.00179488713115 -0.000102235579756 0
0.00182134987599 -0.00010699660488 0
-0.000261190145032 -0.00169518809315 0
-0.00076141801774 -0.00339180006 0
-0.00107847248994 -0.00294336998276 0
0.000954393759922 -0.00408670478357 0
0.000254862402692 -0.000550610683839 0
0.00332470443611 -0.00291197347577 0
-0.00309058742101 -0.00299923918676 0
-0.0027026262531 -0.015767797125 0
0.000770656123074 -0.0293865011421 0
-0.0022681017708 -0.000407544884128 0
0.00228176663258 -0.000404038182538 0
0.00197429668707 -0.00912580062267 0
0.00401319007022 -0.0106324930615 0
-0.00100892131319 7.12429241246e-05 0
0.00103780288256 6.61406095169e-05 0
0.00212561988496 -0.00267944435331 0
0.00271175008629 -0.0108806150668 0
-0.00398602982817 -0.00622840292859 0
0.00297171670878 -0.00159126711446 0
-0.000523127459789 -0.0129759854243 0
0.00309311674183 -0.0161654645515 0
-0.00338159788734 -0.0140484617137 0
-0.000794766199459 -0.00067955981627 0
0.00200390069533 -6.04416594872e-05 0
-0.00198601141155 -5.34769982339e-05 0
-0.000973704466009 -0.000165682355471 0
0.00101922728894 -0.000164292080004 0
-0.00159039113461 -0.00901409749261 0
-0.00097519147534 -0.0297355417652 0
-0.00104781789293 0.000370707401455 0
0.00107676212033 0.000362584988427 0
0.000380860662134 -0.0327266444047 0
-0.00193752159204 -0.00082704835141 0
0.00203268397005 -0.0194177726742 0
-0.0028669129796 -0.00157982064352 0
0.00181494857927 -0.000820104986233 0
0.00195135469954 -0.0125336773495 0
-0.00120145219952 -0.0289567934623 0
3.93269261192e-05 -0.00114053661579 0
-0.00381309452682 -0.0147736164263 0
0.00153955413734 -0.0132182237889 0
6.64935505496e-05 -0.037646232047 0
-8.72290022949e-05 -0.0355351201576 0
-0.000455947915021 -6.40667627631e-05 0
0.000488192053681 -6.77275607427e-05 0
0.000537036873991 -0.00221222671054 0
0.00213078294453 -0.0019502459567 0
-0.00157124669409 -0.0104592517727 0
-0.00023361549545 -0.000498579653755 0
-0.00113354804911 -0.00459117907357 0
-0.0030627005149 -0.00685924058392 0
0.000985669773484 -0.00061453937021 0
-0.00207080052891 -0.0229791437349 0
-0.00151804617712 -0.000463179078625 0
-0.000716795226226 -0.00555517098395 0
0.00176632731096 -0.0271574261957 0
-0.00115169602053 -0.0186846396285 0
0.00164761957042 -0.000466974087838 0
-2.4041414667e-05 -0.0273340590081 0
-0.00309655869514 -0.012003510593 0
-0.00103735080059 -0.000144167650142 0
0.00104504489429 -0.000145878182871 0
-0.000907740257332 -0.00143098729418 0
0.00101537898626 -0.0015436214823 0
0.00379427498751 -0.00625049301037 0
-0.00179217837907 -0.000832113667124 0
0.00185796111707 -0.0204686246328 0
-0.00194528919738 -0.0245855349714 0
0.00242925689689 -0.00573520805086 0
-0.00370069381986 -0.00395421656016 0
0.000465671061655 -0.00301893360845 0
0.00299308372072 -0.0152377145871 0
-0.00157657211727 3.25066644522e-05 0
0.00160218318033 2.7334272175e-05 0
-0.00330169404509 -0.00614106154179 0
0.00115864137526 -0.00482183144933 0
0.00165583136615 -0.00774582848669 0
-0.00211277153279 -0.000312462157816 0
0.0002531133915 -0.0348469351354 0
0.00213581328375 -0.000315623132356 0
0.00166101593426 0.00021985162899 0
-0.00163605691366 0.000228166029346 0
0.000541477426512 -0.00824077562398 0
0.000738412221208 -0.00096359004801 0
0.000303564189325 -0.00192733884672 0
-0.00199033254527 -0.00248040280221 0
-0.000682994041486 -0.0291863348769 0
0.00348785865178 -0.00285907477583 0
6.07417363675e-06 -0.00338910914178 0
0.00169689058889 -0.000593460091992 0
0.00418895858857 -0.0098366005194 0
-0.00249174585335 -0.000771228490631 0
-0.00113093456018 -0.000201835913126 0
0.00113806992026 -0.000205917811371 0
-0.00212823174307 -0.00165742586469 0
-0.00254187856374 -0.00217226077436 0
-0.000509644452296 0.000276091032521 0
0.000541867334252 0.00026915856584 0
-0.000814373468601 0.000456185246463 0
0.000844661392378 0.000447560547143 0
-0.00110853908065 -0.00362768577157 0
-0.00142788108891 -0.00204792669876 0
-0.00307026459742 -0.00182365662659 0
-0.00412395139613 -0.00806971225211 0
-0.000983537930822 -0.0189397257015 0
0.00108082187119 -0.00374581927316 0
0.0025752979562 -0.00127757107813 0
-0.00160837094436 -0.000220458734629 0
-0.000760633785794 -0.00248011898865 0
0.00163348477455 -0.000205814465758 0
0.00298798532217 -0.00297758994101 0
0.00337962279588 -0.0191198763002 0
-0.00198729701979 -0.00672529365714 0
0.000214780279605 -0.0241317438333 0
-0.00380731178972 -0.0118731088699 0
2.38091517078e-05 -0.000872064831339 0
-0.000747633284739 9.33314123875e-05 0
0.000778043193807 8.8214110906e-05 0
0.00148315203828 -0.0193724917872 0
0.00108296358765 -0.0272263991209 0
0.00366661177132 -0.00918762055163 0
-0.00101711429833 0.000214205341737 0
0.0010461494573 0.000207714309571 0
-0.00208506421495 -0.000203960403605 0
0.0021000870632 -0.00020743880155 0
-0.000295378067659 -0.03893532992 0
0.00151953238988 -0.0277515673574 0
0.00103676242764 -0.00340984437702 0
-0.000498950099056 0.000499055086813 0
0.000531331944541 0.000490231857431 0
0.00379796828909 -0.0148291336739 0
-0.00292076679673 -0.0189309884238 0
-0.000348138952533 -0.00142846341741 0
-0.00143717779437 -0.000579300474336 0
0.00407390512981 -0.00560983859549 0
-0.000699914007244 -0.00017937755707 0
0.000970029643278 -0.00378172745948 0
0.000755519742953 -0.000193862993831 0
0.00157928098135 -0.00484398119701 0
0.00245203746064 -0.0217281928663 0
-0.000108193091317 -0.00660035013742 0
-0.00350834728046 -0.0177450510141 0
0.00166635863694 -0.00294553042596 0
-0.00259783844249 -0.00381953822557 0
-0.00102979433085 -0.000483215236091 0
0.00250432496527 -0.000701287154544 0
0.000202505536718 -0.000428252943673 0
-0.0027740338373 -0.00860045155804 0
-0.00128973604162 -0.0262561150827 0
-0.0037094544198 -0.00633606515047 0
0.000133671490762 -0.000949670785816 0
-0.00139249702807 -0.0145669992355 0
0.000266143954562 -0.0328645102674 0
-0.00220661836656 -0.0193174312176 0
-0.000326079087939 -0.00253383191888 0
0.000788538153122 -0.0306017577341 0
-0.0026666301801 -0.022658327723 0
-0.00126483362416 0.000361338951925 0
0.00129253051627 0.000352878798211 0
0.000595920622708 -0.0130041271199 0
0.00348603395088 -0.00980391437009 0
0.00114484990427 -0.000241204880482 0
-0.00191972574105 -0.00208079570365 0
0.000386248024537 -0.00142087376853 0
-0.00218061280417 -0.000651319756197 0
-0.000867109282816 -0.000923258203058 0
-0.00419416193392 -0.00819190263016 0
-0.00240987285656 -0.00552396457293 0
-0.00171101724807 -0.00110663942949 0
-0.00107717922022 -0.000228294332646 0
0.00211722548294 -0.00669023651441 0
0.00246889241854 -0.00900897724366 0
0.000567438748316 -0.0376925514449 0
0.00214784873568 -0.00720124133585 0
-0.00131191083535 9.15150551971e-05 0
0.00133977672732 8.60676467223e-05 0
0.0018871347771 -0.000139576040142 0
-0.00187365559103 -0.000132696773814 0
0.00223385198987 -0.000663344565765 0
-0.000123398558482 -0.0162534202049 0
-0.0017450483039 -0.0271795698642 0
-0.000306971380534 -0.000174072078883 0
0.000334535638285 -0.000182008962885 0
-0.00302893848205 -0.00164653512668 0
0.00086382618775 -0.00275583773078 0
-0.00129547326662 -0.0325653969207 0
0.000504622724666 -0.000570290384228 0
-0.000331482368221 -0.00930091969949 0
-0.000605948720833 -0.03240539576 0
-0.00233550714921 -0.00901404255725 0
-0.000386114842943 3.17299085958e-05 0
0.000418819961468 2.71846811657e-05 0
0.000417319603404 -0.00546136389212 0
0.00229192549973 -0.00139261544421 0
0.00183144545152 -0.0157341175582 0
0.00318928109996 -0.00658424629112 0
0.00271768677639 -0.00134113169348 0
0.00153147321317 -0.00304574911531 0
-0.00265537763257 -0.012152039394 0
-0.00315120895708 -0.00279667141138 0
0.00115772318064 -0.00110263198748 0
-6.65702852217e-05 -0.0123147195957 0
-3.81555956361e-05 -0.0349822565966 0
-0.000474165465229 -0.000517865104158 0
-0.0011714541973 -0.0299923051432 0
-0.00044023007534 -0.00140874418595 0
0.00168957155104 -0.00113020866369 0
0.000549954840734 -0.0108441886309 0
0.00234163056688 -0.000518018145368 0
-0.000658723615351 -0.00204213146733 0
-0.00168518974786 -0.0125950645001 0
0.00351642743714 -0.0136979248372 0
-0.00396592154377 -0.00509614979066 0
-0.000724130075412 -0.00682269091018 0
-0.00106873612883 -0.00302730968477 0
0.00108884888062 -0.00043375935535 0
-0.0023181097272 -0.000513288029528 0
0.00167525322463 -0.0105000304624 0
-0.00176855313834 -0.0056043402871 0
-0.00174000797553 -0.00699129893111 0
0.00181538033799 0.000165424450285 0
-0.00179220109382 0.000174353931184 0
0.00184850535324 -0.0237025558859 0
0.00285956801267 -0.0089990241047 0
0.000437225496055 -0.00468364518415 0
0.00370522669247 -0.00404983694589 0
-0.00215261622957 -0.000604722060768 0
-4.03219515299e-05 -0.000648848944889 0
-0.00146345091771 -0.000822164775376 0
0.000463335977772 -0.0337511754881 0
-0.000731586503047 -0.0200528225728 0
-0.000878617975768 -0.0245506500536 0
0.000600723266854 -0.0019251607478 0
-0.000981422565823 -0.00455117500022 0
-0.000558368144624 2.98173372991e-05 0
-3.17262452883e-05 -0.00205337138568 0
0.000590071990214 2.5395159292e-05 0
0.00168231120297 -0.00223932288444 0
0.00280606525312 -0.0118953209082 0
0.000224782914076 -0.0386415149882 0
0.000933939541802 -0.0192679255049 0
-0.00236178662954 -0.00107342598746 0
-0.00318163202884 -0.00785218914706 0
0.00406228230936 -0.0130669300882 0
0.00256181680526 -0.00460475088736 0
0.00257750104523 -0.00345820392595 0
-0.000899543970046 -0.0120240858079 0
0.000918682672325 -0.0297097244195 0
-0.000230547661184 -0.00334006266725 0
0.000462921849656 -0.000412349142133 0
-0.00306739710613 -0.0022459628087 0
-0.000808174673253 -0.0361350792844 0
-0.00275210443426 -0.00111390655376 0
0.00150352138431 -0.000837822537162 0
-0.000474904326269 -0.000828609208671 0
-0.000504028828194 -0.000144930069321 0
0.000540886201982 -0.000176158076317 0
0.00206404104396 -0.016317721971 0
-0.000423814300332 0.00037153692277 0
0.000456713327183 0.000363760247827 0
-0.00202324485956 -0.0217134210723 0
-0.000184435459656 -0.000409396107267 0
-0.00194349203425 -5.62740778521e-05 0
0.001966216946 -6.12513519984e-05 0
0.00358688393093 -0.0030511520974 0
-0.000831701410052 -0.00909338928495 0
0.000523821760571 -0.00239294312826 0
-5.19666755138e-05 -0.00138314344441 0
0.00119167818416 -0.0215581155467 0
-0.00100726484646 -0.00203340268024 0
0.00233151991765 -0.0150023829877 0
-0.00239899840512 -0.0240756386736 0
-0.00398498033253 -0.0134646613621 0
-0.00227960133385 -0.0105669460556 0
-0.000545733371462 -0.0293692612717 0
-0.000654346638884 0.000528086115904 0
0.00068565362716 0.000518997343313 0
-0.00368960603079 -0.0048241091931 0
-0.000175497743814 -0.00298356888355 0
-0.000902140319073 -4.3168217238e-05 0
0.00228830582473 -0.0238574559619 0
0.000933319899454 -4.68221588355e-05 0
4.88001125944e-05 -0.00134659323661 0
0.000773880491382 -0.0315169154129 0
-0.00342127017386 -0.00263509239381 0
-0.0039847312621 -0.0119046446653 0
0.00297334978573 -0.00190256787027 0
-0.00190790928054 -0.0178436256394 0
-0.000645376251738 0.000291975048736 0
0.000676679989924 0.000284870195268 0
0.00305262965439 -0.00210719189257 0
0.0018583887015 -0.00022570220316 0
-0.00185291208107 -0.00022349762435 0
0.000364699738788 -0.00101006654483 0
0.000650682836155 -0.0267222669602 0
-0.00337673674197 -0.0140374500182 0
0.00311035531691 -0.00281721614843 0
0.00350085035879 -0.00534351985319 0
-0.00199000412383 -0.000120357178409 0
0.00200518508494 -0.000125781056999 0
-0.00120141160338 -0.00116247524239 0
-0.00142529674262 -0.00138078844648 0