# vtk DataFile Version 2.0
Generated with Solid Solver
ASCII
DATASET UNSTRUCTURED_GRID
POINTS 856 float 
0.0 3.5 0.0
1.6 3.5 0.0
1.6 4.0 0.0
0.0 4.0 0.0
0.0695652173912 3.5 0.0
0.139130434782 3.5 0.0
0.208695652174 3.5 0.0
0.278260869565 3.5 0.0
0.347826086956 3.5 0.0
0.417391304347 3.5 0.0
0.486956521738 3.5 0.0
0.556521739129 3.5 0.0
0.62608695652 3.5 0.0
0.695652173911 3.5 0.0
0.765217391302 3.5 0.0
0.834782608694 3.5 0.0
0.904347826085 3.5 0.0
0.973913043477 3.5 0.0
1.04347826087 3.5 0.0
1.11304347826 3.5 0.0
1.18260869565 3.5 0.0
1.25217391304 3.5 0.0
1.32173913043 3.5 0.0
1.39130434783 3.5 0.0
1.46086956522 3.5 0.0
1.53043478261 3.5 0.0
1.6 3.56430812594 0.0
1.6 3.62270835268 0.0
1.6 3.6757434324 0.0
1.6 3.7239062376 0.0
1.6 3.76764438351 0.0
1.6 3.80736436404 0.0
1.6 3.84343531219 0.0
1.6 3.87619247117 0.0
1.6 3.90594026707 0.0
1.6 3.93295517284 0.0
1.6 3.95748825478 0.0
1.6 3.97976750982 0.0
1.58000000587 4.0 0.0
1.55999996633 4.0 0.0
1.54000002214 4.0 0.0
1.51999997198 4.0 0.0
1.50000000455 4.0 0.0
1.48000000216 4.0 0.0
1.45999997931 4.0 0.0
1.44000002484 4.0 0.0
1.41999997044 4.0 0.0
1.40000002096 4.0 0.0
1.37999999963 4.0 0.0
1.35999999626 4.0 0.0
1.34000002179 4.0 0.0
1.31999997343 4.0 0.0
1.3000000318 4.0 0.0
1.27999998783 4.0 0.0
1.26000000202 4.0 0.0
1.24000001295 4.0 0.0
1.21999998074 4.0 0.0
1.20000003685 4.0 0.0
1.17999998163 4.0 0.0
1.16000001473 4.0 0.0
1.14000000469 4.0 0.0
1.11999999139 4.0 0.0
1.10000003625 4.0 0.0
1.07999997877 4.0 0.0
1.06000002802 4.0 0.0
1.04000000338 4.0 0.0
1.02000000764 4.0 0.0
1.00000002986 4.0 0.0
0.979999980237 4.0 0.0
0.960000035522 4.0 0.0
0.939999990881 4.0 0.0
0.920000014619 4.0 0.0
0.900000017903 4.0 0.0
0.879999986222 4.0 0.0
0.860000037278 4.0 0.0
0.839999982352 4.0 0.0
0.820000022783 4.0 0.0
0.800000000002 4.0 0.0
0.779999977222 4.0 0.0
0.760000017652 4.0 0.0
0.739999962726 4.0 0.0
0.720000013782 4.0 0.0
0.699999982101 4.0 0.0
0.679999985385 4.0 0.0
0.660000009123 4.0 0.0
0.639999964482 4.0 0.0
0.620000019766 4.0 0.0
0.599999970141 4.0 0.0
0.57999999236 4.0 0.0
0.559999996622 4.0 0.0
0.539999971983 4.0 0.0
0.520000021235 4.0 0.0
0.499999963756 4.0 0.0
0.480000008612 4.0 0.0
0.459999995315 4.0 0.0
0.439999985272 4.0 0.0
0.420000018371 4.0 0.0
0.39999996315 4.0 0.0
0.380000019261 4.0 0.0
0.359999987052 4.0 0.0
0.339999997986 4.0 0.0
0.320000012172 4.0 0.0
0.299999968206 4.0 0.0
0.280000026575 4.0 0.0
0.259999978213 4.0 0.0
0.240000003742 4.0 0.0
0.220000000371 4.0 0.0
0.199999979041 4.0 0.0
0.180000029557 4.0 0.0
0.159999975162 4.0 0.0
0.140000020694 4.0 0.0
0.119999997846 4.0 0.0
0.0999999954514 4.0 0.0
0.0800000280232 4.0 0.0
0.0599999778571 4.0 0.0
0.0400000336732 4.0 0.0
0.0199999941324 4.0 0.0
0.0 3.97976750982 0.0
0.0 3.95748825478 0.0
0.0 3.93295517284 0.0
0.0 3.90594026707 0.0
0.0 3.87619247117 0.0
0.0 3.84343531219 0.0
0.0 3.80736436404 0.0
0.0 3.76764438351 0.0
0.0 3.7239062376 0.0
0.0 3.6757434324 0.0
0.0 3.62270835268 0.0
0.0 3.56430812594 0.0
0.249757905714 3.75212552678 0.0
1.35000000902 3.74954526597 0.0
0.488714190926 3.75947467509 0.0
0.727445026698 3.75983525744 0.0
0.962900270309 3.76055270856 0.0
1.17161197633 3.81755162829 0.0
0.130754031542 3.86878251069 0.0
1.46924596846 3.86878251069 0.0
0.369913852535 3.84868154079 0.0
0.603236233099 3.84763103091 0.0
0.843402107212 3.84736931152 0.0
1.05041705507 3.86611282467 0.0
0.250539323282 3.87785527135 0.0
1.34882231626 3.87787871523 0.0
0.468661896861 3.89189320321 0.0
0.704258117309 3.89639128976 0.0
0.94963922804 3.89654080835 0.0
1.25000000748 3.89875296068 0.0
1.12879020517 3.91059303421 0.0
0.548928478218 3.91905583534 0.0
0.7889268651 3.91906062813 0.0
0.0712526194949 3.93011432704 0.0
1.52874738051 3.93011432704 0.0
1.4740071133 3.74293106904 0.0
0.125992886699 3.74293106904 0.0
0.329956761073 3.92118145982 0.0
1.09412206522 3.66725831207 0.0
0.190000004299 3.92542384899 0.0
1.41098423528 3.92728100222 0.0
0.629999992124 3.92414139091 0.0
0.87000001175 3.92414140592 0.0
0.853391941071 3.71944243214 0.0
0.610032822379 3.72536074396 0.0
0.41090315692 3.92892991009 0.0
0.370435019193 3.7251305208 0.0
1.01000001875 3.93130199947 0.0
1.22823348571 3.68694249365 0.0
1.18894423177 3.93487447818 0.0
1.31063576122 3.93502724255 0.0
0.129927636183 3.94112156482 0.0
1.47007236382 3.94112156482 0.0
1.07646504896 3.76194504855 0.0
1.07000000339 3.94017719684 0.0
0.270000002394 3.93875928556 0.0
1.26759839792 3.80243333593 0.0
0.770332946246 3.83880063275 0.0
0.530342720064 3.83880306325 0.0
0.189898092614 3.63474333735 0.0
1.4101772205 3.6313147556 0.0
0.942883893479 3.62966700486 0.0
0.510631148905 3.62429064243 0.0
0.754670889573 3.63369080225 0.0
0.489999986184 3.94463854908 0.0
0.732500655853 3.9452729887 0.0
0.193627936713 3.81528931126 0.0
1.40183871842 3.81461096917 0.0
0.928721275957 3.94715071018 0.0
0.0604617896557 3.86281267064 0.0
1.53953821034 3.86281267065 0.0
1.25036152032 3.94913766834 0.0
0.30096552553 3.81141484704 0.0
0.297089357677 3.66359682597 0.0
0.394212311705 3.61316974741 0.0
0.831051681923 3.94633984116 0.0
0.592085081305 3.94901138542 0.0
0.669405291514 3.95495209798 0.0
1.3611855791 3.94637621082 0.0
0.928496698914 3.82436133158 0.0
0.444093171593 3.8271987226 0.0
0.683378885111 3.8234871366 0.0
0.372430737197 3.95235208784 0.0
1.19348789949 3.87019408468 0.0
1.15124363553 3.95467023547 0.0
0.229287653728 3.96038323295 0.0
0.646635519079 3.61231195482 0.0
0.986819459779 3.84973028271 0.0
1.11214815433 3.84770266014 0.0
1.50610225987 3.6604664246 0.0
0.0938977401332 3.6604664246 0.0
0.531976760298 3.96138656711 0.0
0.451361041931 3.96112773652 0.0
0.771976835888 3.96138886125 0.0
1.53311213884 3.79435404356 0.0
0.066887861162 3.79435404356 0.0
0.970836553066 3.9620233382 0.0
0.311702426505 3.96111572975 0.0
1.31698094247 3.6658628839 0.0
1.11177843379 3.95948388532 0.0
1.15003411964 3.72957279566 0.0
0.890058924798 3.96133576813 0.0
0.169108880648 3.96040269401 0.0
1.42850737314 3.96465656678 0.0
0.0426347993992 3.9610175717 0.0
1.5573652006 3.9610175717 0.0
1.28993057938 3.85776473604 0.0
1.34652710411 3.82072629166 0.0
0.897316840472 3.87585124602 0.0
0.814484972147 3.79171515708 0.0
0.573290986674 3.7879873938 0.0
1.02164717476 3.69631051635 0.0
0.41798215839 3.87594988344 0.0
1.18469655214 3.6045863568 0.0
0.657426542805 3.87734841349 0.0
0.0893439701605 3.9657484063 0.0
1.51065602984 3.9657484063 0.0
0.850202761783 3.61862953305 0.0
0.185775988195 3.86980628439 0.0
1.41422401181 3.86980628439 0.0
0.305957202498 3.87340573583 0.0
0.629999992124 3.96272981278 0.0
0.686026569054 3.68766751472 0.0
1.03220081924 3.96436031967 0.0
0.445441337222 3.69456289967 0.0
1.33308537187 3.96770341358 0.0
1.0249206042 3.60512275769 0.0
0.128645746764 3.81165411571 0.0
1.47135425324 3.81165411571 0.0
1.29077706219 3.96625078806 0.0
1.21302440104 3.96491551313 0.0
0.373320303365 3.89968789902 0.0
0.409457647309 3.96502881891 0.0
1.39076199588 3.96614348387 0.0
1.2156032112 3.76624353786 0.0
0.383301616321 3.78976397621 0.0
0.593246012246 3.8948346816 0.0
0.833004203108 3.89475034107 0.0
0.187583903859 3.70688411961 0.0
1.41241609614 3.70688411961 0.0
1.08573330585 3.89673930733 0.0
1.04303343403 3.81530385578 0.0
0.103644791029 3.90516202075 0.0
1.49635520897 3.90516202075 0.0
1.23586605501 3.85112068621 0.0
0.921814270996 3.70213058021 0.0
0.532219762185 3.7029333087 0.0
1.28217045716 3.7375098981 0.0
0.779621693208 3.70806977531 0.0
0.998890529268 3.88397615296 0.0
0.659406618131 3.76469373474 0.0
0.230043799244 3.91599372373 0.0
1.53690667654 3.72637971331 0.0
0.0630933234627 3.72637971331 0.0
0.153148105836 3.90639761309 0.0
1.4478092366 3.90500627713 0.0
0.512139854501 3.90538519137 0.0
0.750930702019 3.90340708 0.0
0.0409150717909 3.90046251393 0.0
1.55908492821 3.90046251393 0.0
0.702096631597 3.96656725638 0.0
0.246204062466 3.82734823738 0.0
0.872012730916 3.80079945556 0.0
0.313419524246 3.75328100976 0.0
1.26305184675 3.57725747237 0.0
1.04341944162 3.90846795586 0.0
0.697725469476 3.93030230037 0.0
0.27003033309 3.96477332623 0.0
0.632456188669 3.80120134001 0.0
0.55988813035 3.96676596088 0.0
0.798125231733 3.9668778541 0.0
0.861599835739 3.96514225679 0.0
0.130196681328 3.96566148827 0.0
1.46980331867 3.96566148827 0.0
0.337465698618 3.96873835045 0.0
1.10690030388 3.57445060302 0.0
1.07038768144 3.96631210642 0.0
0.201908835349 3.96783542832 0.0
1.17640357301 3.96795841043 0.0
0.482502283815 3.8454083814 0.0
1.37723451734 3.90442225885 0.0
0.722497886517 3.84543272537 0.0
0.254749007352 3.57960328731 0.0
0.449206209982 3.91785378051 0.0
0.907803563184 3.91575967116 0.0
0.997592319531 3.96832081731 0.0
1.3597087328 3.59165409162 0.0
0.797785363131 3.87112617582 0.0
0.557788209884 3.87112741711 0.0
0.133223775006 3.57024633267 0.0
1.46673023696 3.57019175074 0.0
0.296361477075 3.90524448543 0.0
1.29555045611 3.90092076583 0.0
1.11951450862 3.79592056714 0.0
0.341558640376 3.57546927501 0.0
0.974255514016 3.92370320024 0.0
0.664786082443 3.91707165091 0.0
1.1442561544 3.86460464827 0.0
0.430695849932 3.74774845865 0.0
1.22439218721 3.92431164104 0.0
0.917330800791 3.76752811157 0.0
0.0995806821614 3.83759752714 0.0
1.50041931784 3.83759752714 0.0
0.586492545959 3.6571718064 0.0
1.16809690663 3.90376349956 0.0
0.490525946651 3.9687439861 0.0
0.170108846494 3.77025381333 0.0
0.726723612771 3.96611364881 0.0
1.42998397347 3.77014833166 0.0
1.55978981314 3.82099569701 0.0
0.0402101868575 3.82099569701 0.0
1.10043652243 3.92805072974 0.0
1.34111814411 3.91924529479 0.0
1.27430066613 3.93505265881 0.0
0.56431092584 3.57086686051 0.0
0.930516510487 3.96969091611 0.0
1.17713743504 3.67180033503 0.0
0.801256410508 3.5635758738 0.0
1.37979186382 3.84566323689 0.0
1.02277822921 3.7577258162 0.0
0.252009847995 3.68167957306 0.0
0.0497138210057 3.58866012032 0.0
1.55028617899 3.58866012032 0.0
0.466046622144 3.57331739513 0.0
0.343019074867 3.81481221655 0.0
0.0645235269233 3.96909610548 0.0
1.53547647308 3.96909610548 0.0
0.0310141903995 3.92955737583 0.0
[...]
POINT_DATA 856
VECTORS Displacement float
0.0 0.0 0
0.0 0.0 0
0.00417866464472 0.000128257963722 0
-0.00412168362791 0.000145241080062 0
0.0 0.0 0
0.0 0.0 0
0.0 0.0 0
0.0 0.0 0
0.0 0.0 0
0.0 0.0 0
0.0 0.0 0
0.0 0.0 0
0.0 0.0 0
0.0 0.0 0
0.0 0.0 0
0.0 0.0 0
0.0 0.0 0
0.0 0.0 0
0.0 0.0 0
0.0 0.0 0
0.0 0.0 0
0.0 0.0 0
0.0 0.0 0
0.0 0.0 0
0.0 0.0 0
0.0 0.0 0
0.00400301510939 -0.00273062221965 0
0.00679089374363 -0.00330575979099 0
0.00861329302143 -0.0030503676725 0
0.00937213373167 -0.00241459609987 0
0.00945359241707 -0.00173932880862 0
0.0090742456316 -0.00110305704399 0
0.00837107269109 -0.000615370200338 0
0.00759766401073 -0.000259482917075 0
0.00677142835642 -3.0632837665e-05 0
0.00599361150452 7.47587221632e-05 0
0.00530158218248 0.000120030176176 0
0.00470182802591 0.000129881334549 0
0.00418032189712 -0.000384940564855 0
0.00417695108257 -0.000875364682593 0
0.00415137633962 -0.00134347181886 0
0.00409151139211 -0.00179476968884 0
0.00398978785644 -0.00224331568532 0
0.00384193340235 -0.00271263955239 0
0.00363769468131 -0.00320094365175 0
0.00338727685907 -0.00375076626727 0
0.00307287054536 -0.00435824721693 0
0.00272321582956 -0.00506095259964 0
0.00230720883796 -0.00584981768015 0
0.00185041085819 -0.00677842626848 0
0.00132422566924 -0.00784654989563 0
0.000763571929817 -0.00909742947485 0
0.000194038594308 -0.0105283775296 0
-0.000462565996673 -0.0121908318345 0
-0.00110567797446 -0.014098711862 0
-0.00173532885684 -0.0163143400334 0
-0.0023972680786 -0.018875161708 0
-0.00311227031162 -0.0218666883309 0
-0.00369681705542 -0.0253661832622 0
-0.0042564180236 -0.0295633437901 0
-0.00443664773876 -0.034658772341 0
-0.00408309136154 -0.0412772044033 0
-0.0030902111949 -0.0488554148368 0
-0.00206491625798 -0.0558419896102 0
-0.00098868890879 -0.0622926993014 0
-0.000114462628324 -0.0683021702033 0
0.000673828150881 -0.0738326124073 0
0.00125299707819 -0.0789201753621 0
0.00172316984454 -0.0835357673859 0
0.00201913025663 -0.0876934049194 0
0.00214863611525 -0.0913901481814 0
0.00217933584014 -0.0946001884352 0
0.0020709855056 -0.0973317644758 0
0.00185830576087 -0.09957884707 0
0.00154602664228 -0.101334392581 0
0.00117161234566 -0.102596292851 0
0.00071549871614 -0.103355020624 0
0.000184842463369 -0.103595649341 0
-0.000441836423254 -0.103360694317 0
-0.000959752579735 -0.102607034865 0
-0.00138192708472 -0.101351604213 0
-0.00170809276106 -0.0995986246195 0
-0.0019446695346 -0.0973495181791 0
-0.00205846200094 -0.0946187442423 0
-0.00203884881 -0.0914050651948 0
-0.00189621611965 -0.0877190217404 0
-0.00163288265454 -0.0835587925221 0
-0.00115227946631 -0.0789494927606 0
-0.000597127012739 -0.0738587405101 0
0.000191420166021 -0.0683302214967 0
0.00108014683207 -0.062326542983 0
0.00212291307985 -0.0558665338975 0
0.00316370312047 -0.0488870772628 0
0.00416825294714 -0.0413159426526 0
0.00451155336874 -0.0346467746661 0
0.00422209001807 -0.0295128406456 0
0.00378954915747 -0.0253978207665 0
0.00317924120445 -0.0218581375037 0
0.00245545980027 -0.0188790940053 0
0.00179152206608 -0.0163132519017 0
0.00113082195413 -0.0141108209744 0
0.000470273115659 -0.0121894249526 0
-0.000161809287772 -0.0105371049153 0
-0.000729626087317 -0.00909730290585 0
-0.00129151362091 -0.00785872273095 0
-0.00178447151229 -0.00678401005585 0
-0.00225104620699 -0.00585490913777 0
-0.00267023754958 -0.00506347419142 0
-0.00301744229791 -0.00436110613577 0
-0.00332987959471 -0.00375256543596 0
-0.00357994406605 -0.00319877714791 0
-0.00378497470758 -0.00270781066715 0
-0.00393260198132 -0.00223681830329 0
-0.00403430964818 -0.00178600476649 0
-0.00409425711947 -0.00133254407624 0
-0.00411991279139 -0.000862371939291 0
-0.00412333252838 -0.000369953953287 0
-0.00464688249663 0.000146855755408 0
-0.00524887051007 0.000136948022461 0
-0.00594323576784 9.16019321547e-05 0
-0.00672343318227 -1.37872236615e-05 0
-0.00755226872312 -0.000242351153284 0
-0.00832883669047 -0.000597714033074 0
-0.00903563308601 -0.00108467119377 0
-0.00942020444058 -0.00171994415981 0
-0.0093458039089 -0.002395371753 0
-0.00859472552259 -0.00303365991251 0
-0.00677722580485 -0.00329358375458 0
-0.0039921531739 -0.00272223623665 0
-0.0113388148519 -0.00599447646803 0
0.0113571751585 -0.0059234999807 0
-0.0136699206692 -0.0252062681179 0
-0.00444951699159 -0.0457686080704 0
0.00942140504593 -0.040519294107 0
0.0134190153052 -0.022280718892 0
-0.00802032379693 -0.00282247308705 0
0.00806234578144 -0.00283075694739 0
-0.0114499246574 -0.016185972801 0
-0.010508643965 -0.052115573364 0
0.002688927455 -0.065784911205 0
0.0117547534248 -0.046467683261 0
-0.00831508535867 -0.00690342918377 0
0.00836703092093 -0.00693459139993 0
-0.010923193215 -0.0331503741103 0
-0.00490720823425 -0.0738462248105 0
0.0074042449847 -0.0679550352143 0
0.00832477386587 -0.0146492618793 0
0.00969092366312 -0.0348431045571 0
-0.00897797210859 -0.0537717515627 0
-0.000471245192073 -0.0833212213607 0
-0.00603902079109 -0.00157621472441 0
0.00608863359531 -0.00158609639515 0
0.0099999922307 -0.00262963316727 0
-0.0099673550123 -0.00262599442372 0
-0.0063721241362 -0.012714348282 0
0.0112651816697 -0.0171935119502 0
-0.00595694302688 -0.00444433998925 0
0.00593452025974 -0.00440269119514 0
-0.00688506293255 -0.0705810626433 0
0.00329190607313 -0.0822446566386 0
0.0031829830852 -0.0381654355194 0
-0.0100731085814 -0.0323271161216 0
-0.00673675102277 -0.0233111057387 0
-0.0129145184585 -0.0120750228161 0
0.00751307883518 -0.0645845598682 0
0.0121086892674 -0.0103687118476 0
0.00614003249692 -0.0233981853034 0
0.00525851680199 -0.00939900974379 0
-0.00553943676545 -0.00281954113971 0
0.0055895156711 -0.00282106048528 0
0.0132669424758 -0.0293630136038 0
0.00733987502847 -0.0519847429255 0
-0.00502259958473 -0.00812169452287 0
0.0122117166543 -0.0116617665908 0
-0.00176590479288 -0.0641610044222 0
-0.0127658672599 -0.0395432057922 0
-0.00809923741039 -0.00261638336646 0
0.00801984740803 -0.00258097243734 0
0.00583276980948 -0.0193425034901 0
-0.0092774702737 -0.0127881635219 0
-0.00203341904643 -0.0220860103186 0
-0.00660751540275 -0.0416777324138 0
-0.00264299478802 -0.0874115495886 0
-0.00985094904393 -0.00438328070187 0
0.00996888567443 -0.004532823491 0
0.00473465263198 -0.0815756825515 0
-0.00803285965609 -0.00154864005834 0
0.00807752798844 -0.00155966779012 0
0.00404260360476 -0.0148193443766 0
-0.011427554353 -0.00950459629387 0
-0.0105148518581 -0.00596858541729 0
-0.00912209863781 -0.00733105437177 0
0.00135832146728 -0.0895557640995 0
-0.00606238672756 -0.0681341526156 0
-0.00432238847611 -0.0830201837534 0
0.00476235453855 -0.00645425172054 0
0.00773058711207 -0.0555318749971 0
-0.0133623040488 -0.0249504223666 0
-0.00700327692071 -0.0563874364018 0
-0.00369507664903 -0.017603697826 0
0.0112336495675 -0.0214418942093 0
0.00442079381298 -0.0313147541045 0
-0.00404055954604 -0.00604613042172 0
-0.00567529873041 -0.0162252592782 0
0.0101674286725 -0.0539240028416 0
0.0130429435962 -0.0333830704634 0
0.00837925616181 -0.0019855842969 0
-0.00836501003293 -0.00197582337568 0
-0.00486456436513 -0.0552226505812 0
-0.00349958745013 -0.0320270568651 0
-0.000954172595113 -0.0933891572567 0
0.00950144154292 -0.00193909979786 0
-0.00946293153363 -0.00192738790169 0
0.00475547736391 -0.0779952442202 0
-0.00308840434816 -0.0111900434681 0
0.0104238119994 -0.00554139968985 0
0.00472675829723 -0.0422200593001 0
0.013529237225 -0.0187425228497 0
0.00317160029077 -0.0893682679815 0
-0.00460984270332 -0.00386314761627 0
0.00447551832148 -0.00394436848304 0
-0.00514263033116 -0.000926133816344 0
0.00519564110976 -0.00093889219754 0
0.010042187704 -0.0106247015987 0
0.0104909472538 -0.00678569795379 0
0.00545484233762 -0.0691428399263 0
0.000950716643903 -0.0539801404884 0
-0.0121506793989 -0.0386037874465 0
0.0106387427469 -0.0256804730863 0
-0.0110529999367 -0.0232964541318 0
0.00857537641849 -0.0074193939085 0
-0.00756003964725 -0.0649039785771 0
-0.00490356470237 -0.00195176860689 0
0.00495719661571 -0.00195958116894 0
0.00209065546272 -0.0192189507316 0
-0.00820718178347 -0.0042351126977 0
0.00824587213534 -0.00422839821768 0
-0.00916776393209 -0.0104352952743 0
-0.00459141641749 -0.0782717716403 0
-0.00603976414657 -0.0302334263632 0
0.0047691974538 -0.0650740306654 0
-0.0126779328709 -0.0156516029783 0
0.00319953415838 -0.00803452044557 0
0.00724145663762 -0.0130050137542 0
-0.00944565107411 -0.00278125191156 0
0.0094940355511 -0.00279023206027 0
0.00274638786683 -0.0110094694152 0
0.00223004543389 -0.0196373422406 0
-0.00862547274518 -0.0174346567939 0
-0.00220392937546 -0.023261881337 0
0.00402600383618 -0.00522976075448 0
0.0134342480004 -0.0149942508394 0
-0.0132464937116 -0.0158746253755 0
-0.00939800216308 -0.0588308223995 0
0.00182655163306 -0.0770854945839 0
-0.0101628896962 -0.00348893442092 0
0.0101707951376 -0.00346955794139 0
0.0108278029792 -0.0432256505551 0
0.0125348318924 -0.0405231759658 0
-0.00682219260587 -0.00224342631901 0
0.006868908284 -0.00225084417039 0
0.0113197266807 -0.0156403215561 0
0.00664963892727 -0.0325600866459 0
-0.0119319376029 -0.0231034586555 0
0.0123580615867 -0.00910543581032 0
-0.00119831894534 -0.0364361498327 0
0.00968650974101 -0.0582551176749 0
-0.0083062867676 -0.0429345566656 0
-0.00636349735892 -0.00598046287076 0
0.00961876234013 -0.00214006277451 0
-0.00959215532387 -0.00212792849225 0
-0.00676696186443 -0.00335282406892 0
0.00687031726643 -0.0033331767077 0
-0.010245010644 -0.0437065382069 0
-0.00248215533313 -0.0785196098992 0
-0.00693817186315 -0.00102660335265 0
0.00698572082768 -0.00103942394797 0
-0.00306628853458 -0.089763916512 0
-0.0101702562282 -0.00651218544131 0
0.00453012278531 -0.0543743393533 0
-0.0123285606341 -0.00926737247473 0
0.00650090089923 -0.00381526633474 0
0.00962421856224 -0.0539222867613 0
-0.00435107887474 -0.0809336287945 0
-0.00330825376557 -0.0082168870421 0
-0.00977000911939 -0.0473389973775 0
-0.00436409503191 -0.0634561587194 0
3.07066633825e-05 -0.0951793248049 0
0.00222762555034 -0.0926540722552 0
-0.00470388974447 -0.00286333519708 0
0.00475818995036 -0.00286622379794 0
-0.00211860287918 -0.0135996516017 0
0.00637040496438 -0.00722524618791 0
0.00423299748114 -0.0550996071266 0
-0.00397959906505 -0.00496733356816 0
0.00191804257282 -0.0259002013232 0
-0.0130666277389 -0.0322069054515 0
0.00697104176001 -0.00563996596671 0
-0.00460689773841 -0.0637795936104 0
-0.0059419818137 -0.0024837320207 0
-0.00867171852391 -0.0304124365042 0
0.00509845136355 -0.0770599048801 0
0.00442310197402 -0.073810969075 0
0.00654364162591 -0.00260818749576 0
-7.22631662422e-05 -0.0719510410887 0
-0.0112942896713 -0.0486017923231 0
-0.00442463345861 -0.00114288356802 0
0.0044374038695 -0.00114595180535 0
-0.00723538180246 -0.00985118561987 0
0.00761089140606 -0.0104284378957 0
0.0138307550992 -0.0276169523322 0
-0.00639292594515 -0.0038326686985 0
0.00712484661948 -0.0697780653676 0
-0.00602720245802 -0.0741785224942 0
0.0122890002796 -0.029062371898 0
-0.0136611937119 -0.0182917497333 0
0.00661202531318 -0.017894690937 0
0.00710779798082 -0.0450958582578 0
-0.00877271684921 -0.00226856862612 0
0.00881349863624 -0.00227617868294 0
-0.00902662771883 -0.0206063090126 0
0.00945421047802 -0.0265139025495 0
-0.00319038551451 -0.0435300194043 0
-0.0102672294395 -0.00355901401195 0
-0.00240686760803 -0.092019680582 0
0.0103048498852 -0.00356205364808 0
0.00897466209475 -0.00148714267899 0
-0.00893451520943 -0.00147348539158 0
0.00855778681539 -0.0429110904095 0
0.00626299632915 -0.00743889571563 0
0.00527434443297 -0.0123383631182 0
-0.00548726498329 -0.008413966191 0
0.00375566051645 -0.0862945915921 0
0.0119538450154 -0.0125016454083 0
1.07004998658e-05 -0.00985795289575 0
0.00933967366931 -0.00541614319786 0
0.0118336856612 -0.0344665160575 0
-0.010407244916 -0.00489366477199 0
-0.00513152507405 -0.00165171194909 0
0.00514351066899 -0.00165938229395 0
-0.00658660359345 -0.00635302413339 0
-0.0121427219439 -0.012817105555 0
-0.00488137034968 -0.00141730867519 0
0.00493524823276 -0.00142784470197 0
-0.0060625852405 -0.00071093441124 0
0.00611259053687 -0.000724785019972 0
-0.00271309514229 -0.0108025873937 0
-0.00921961670931 -0.0128613241271 0
-0.0113378685663 -0.00886281908832 0
-0.0133648015867 -0.0321530254307 0
-0.00217108013016 -0.0520662982853 0
0.00262955519808 -0.011139520373 0
0.0117467200988 -0.00826905540652 0
-0.00895044763712 -0.00349651522289 0
0.00129750045617 -0.0149034892405 0
0.00898181839199 -0.00340947987628 0
0.0130483561926 -0.0160166279319 0
0.00841186779738 -0.0595966410051 0
0.00102956867638 -0.0378219020992 0
0.000450030027691 -0.0644362679434 0
-0.0120060401479 -0.045200863695 0
0.00325609041797 -0.00683356807023 0
-0.00583419282723 -0.00216534117962 0
0.00588391915463 -0.00217224734531 0
-0.00398453866371 -0.0754562961595 0
-0.00368793098382 -0.084570046205 0
0.0130158370245 -0.0383106600027 0
-0.00683399452726 -0.00164155480743 0
0.00688155640603 -0.00165095858704 0
-0.00957094710554 -0.00249025119435 0
0.00959099873748 -0.00249514654767 0
0.00104147542333 -0.0987138496426 0
0.00360027764549 -0.0747551585971 0
-0.00111061478769 -0.0196383110785 0
-0.00483827538894 -0.000545262314582 0
0.00489247074977 -0.000559573879324 0
0.00963762640059 -0.0472373783912 0
-0.00848665348469 -0.0633666476904 0
0.00209783570923 -0.0096059959236 0
-0.00856390299334 -0.00540895808219 0
0.01285465157 -0.0221509617012 0
-0.00573057072557 -0.00342455566215 0
0.00866571731773 -0.0216340014001 0
0.00588614746097 -0.00348772077093 0
-0.000400665898358 -0.0271274587437 0
0.00546671274562 -0.0612975356018 0
0.00685325825118 -0.036267280937 0
-0.00872083834575 -0.0554421533583 0
0.00428874195334 -0.00931526873885 0
-0.0125527745411 -0.0204589334476 0
-0.00711958872574 -0.00497100450271 0
0.010702598092 -0.00476318837686 0
0.0037047356734 -0.00458838128302 0
-0.0122117298157 -0.0393610612895 0
-0.00286708415755 -0.0704342695383 0
-0.0138126366444 -0.0282736157768 0
-0.00270646548542 -0.00720068468174 0
-0.00818647854223 -0.0604299960997 0
0.000780522782 -0.0845382599456 0
-0.00494794558773 -0.054372990255 0
-0.00588453263691 -0.0154343740998 0
-0.00338117264951 -0.0880250049944 0
-0.00622542063416 -0.0652752788585 0
-0.00771304419319 -0.00104691146259 0
0.00775835533526 -0.00106053454193 0
0.00754845904254 -0.0587167431711 0
0.00899904314376 -0.0311062028054 0
0.00467240659359 -0.00146707426471 0
-0.0106178272542 -0.0128351887852 0
-0.00200562350316 -0.00956406520288 0
-0.0106754535578 -0.00539158815953 0
-0.00678375533097 -0.00725258751075 0
-0.0123633841566 -0.0298759920951 0
-0.0122485500866 -0.0282392395409 0
-0.00965426602268 -0.00806370539674 0
-0.0044137897933 -0.00139256531414 0
-0.000606319919498 -0.0377963243688 0
-0.00165633600473 -0.0506029187889 0
-0.00148632040911 -0.0968992935297 0
0.0116140023387 -0.0356871300684 0
-0.00789643245386 -0.00210194569306 0
0.00794276917102 -0.00210884078593 0
0.00881613834379 -0.00217705946755 0
-0.00879778776945 -0.00216496769534 0
0.0107825320415 -0.00542743880878 0
-0.000273737510266 -0.0449778730298 0
0.0033770600944 -0.0855640862178 0
-0.00411149100101 -0.00336594951891 0
0.00414758526735 -0.0033931123674 0
-0.0121518314653 -0.00893253716896 0
-0.00120584045605 -0.0163112216146 0
0.00296044869188 -0.0914659427526 0
0.00509614586126 -0.00537862002058 0
-0.00792804263338 -0.0473419735337 0
-0.00220302558794 -0.0847474011855 0
0.00197293007694 -0.0504428555376 0
-0.00439523164167 -0.00243135562024 0
0.00445032682081 -0.00243659313081 0
0.00784159647259 -0.0301784312723 0
0.0113005401723 -0.0092014098684 0
-0.00389521531794 -0.069766674807 0
0.00847185834188 -0.0213696935623 0
0.0100766232756 -0.00663047270416 0
0.0099084609148 -0.0177636390156 0
0.00258102832472 -0.0623709854534 0
-0.0100741048391 -0.0112510417579 0
0.0078612552247 -0.00816160961894 0
-0.00694729065683 -0.0578100199393 0
-0.000304766375993 -0.089233425873 0
-0.00501326795668 -0.00511539311107 0
-0.00349249806544 -0.0807387766986 0
-0.0055058301307 -0.0097054654781 0
0.00958207917811 -0.00820360495273 0
0.00126937711717 -0.0306854370164 0
0.0107798167071 -0.00437653656582 0
0.00129320228741 -0.0126680041758 0
-0.00394072375333 -0.0360157505806 0
0.0110608366197 -0.0510396436603 0
-0.01276484054 -0.0204946172724 0
-0.00887828784671 -0.0363110687178 0
0.000452602056781 -0.0176286401475 0
0.00724687169419 -0.00470615671739 0
-0.0107528594795 -0.00438098772882 0
0.00397297888733 -0.0303015530258 0
0.000483575871327 -0.0313255633855 0
-0.0042681375698 -0.0206820860259 0
0.00940466165548 -0.00164009400273 0
-0.00936760079559 -0.001624958188 0
0.00628993008048 -0.0740697868238 0
0.0122019301868 -0.0404900489174 0
-0.00481620541462 -0.0264858294824 0
0.0138110501999 -0.0189390532231 0
-0.00874274447318 -0.00365226483764 0
-0.00322948177685 -0.00569683727058 0
-0.00491181432732 -0.00348631214511 0
0.00230381162389 -0.0880029627172 0
-0.00603922950023 -0.0721127856943 0
-0.00536412847209 -0.0776734088876 0
-0.00152067506842 -0.0120895247481 0
-0.00900060828443 -0.0253406951292 0
-0.00509786592512 -0.00244433081925 0
-0.00438372496911 -0.0129332377554 0
0.00515072214596 -0.00244936787422 0
0.0100096916165 -0.0137389568089 0
-0.00219570821721 -0.061740079959 0
-0.000500973730941 -0.0976977570118 0
0.00644360936616 -0.0706132525455 0
-0.0112958273677 -0.00744771859263 0
-0.00827029975929 -0.0249212842678 0
0.0112487925623 -0.0451468304318 0
0.0125561558613 -0.0239861043943 0
0.0124883306336 -0.018834502568 0
0.00542661684214 -0.0588880128105 0
0.00423530667429 -0.0830909451133 0
-0.00610071371157 -0.0195395567104 0
0.00482236424755 -0.00455817270452 0
-0.0129643224055 -0.0123212652098 0
0.00225626477669 -0.0953194294293 0
-0.0116344876281 -0.00682268653335 0
0.00507712299619 -0.00353595670809 0
-0.00522914325895 -0.00672502916377 0
-0.00493089475133 -0.00324934236565 0
0.0050190214949 -0.0033900486913 0
0.00469917545074 -0.0463078035122 0
-0.0045407283697 -0.00104122390385 0
0.00459601097998 -0.00105345278994 0
0.00348695430664 -0.0793209658561 0
-0.00370186157189 -0.0045037876945 0
-0.00978184419869 -0.00239353844449 0
0.00981762675698 -0.00240159597012 0
0.0132321892089 -0.0144352495203 0
0.00562569406825 -0.0485937808145 0
0.00642617153741 -0.0147215652834 0
-0.00391463245534 -0.00950123632047 0
0.00258758199473 -0.0587676128495 0
-0.00253263779381 -0.00628369347132 0
0.00926850136451 -0.0586880459716 0
-0.00623270570707 -0.07082319237 0
-0.0110904490787 -0.0464384415682 0
-0.0108274193821 -0.0472299691496 0
-0.00131781784373 -0.0768526251846 0
-0.00544574763372 -0.000434520007032 0
0.0054977623366 -0.000449327694012 0
-0.0139415516574 -0.0223284377174 0
0.00424407239634 -0.0176507680922 0
-0.00645315682885 -0.00276904987843 0
-0.00315343176334 -0.0822756002229 0
0.006507914519 -0.0027744208666 0
0.00378341731922 -0.00930360528689 0
0.00223015336437 -0.0824246208374 0
-0.0123306259063 -0.0121753764169 0
-0.0105461454904 -0.0392322001944 0
0.0104746357041 -0.00864647806226 0
-0.0078329766582 -0.0654516972163 0
-0.00541447807539 -0.00135232942519 0
0.0054663797047 -0.00136321524027 0
0.0128725121431 -0.0116923386625 0
0.00816620451715 -0.00213192830028 0
-0.00817436668234 -0.00213446177225 0
0.00484113966058 -0.00764245615457 0
0.00141543076198 -0.0707462381651 0
-0.0107825706789 -0.052397083497 0
0.00980180947681 -0.0111249140716 0
0.00997788840633 -0.01875586832 0
-0.00931655828486 -0.00215966045004 0
0.0093376544876 -0.00216932799684 0
-0.00807544787197 -0.00846546894001 0
-0.00411653974433 -0.0048779582877 0
0.00299516279477 -0.00610609549797 0
0.0117306354981 -0.00805364418238 0
0.00330177990953 -0.0721946347569 0
-0.00780250152998 -0.00343391158064 0
-0.00360739014105 -0.0203490955095 0
0.00783854679322 -0.00342633034408 0
0.011349609234 -0.0123705400918 0
-0.00231306842753 -0.0948599238174 0
0.00701577822692 -0.0663936315985 0
0.00496052007435 -0.00431939775636 0
6.97083987768e-05 -0.0230287705917 0
0.0115654239933 -0.00663034709278 0
0.00530034972769 -0.0266129791379 0
0.0135641382658 -0.027301293205 0