# vtk DataFile Version 2.0
Generated with Solid Solver
ASCII
DATASET UNSTRUCTURED_GRID
POINTS 856 float 
0.0 3.5 0.0
1.6 3.5 0.0
1.6 4.0 0.0
0.0 4.0 0.0
0.0695652173912 3.5 0.0
0.139130434782 3.5 0.0
0.208695652174 3.5 0.0
0.278260869565 3.5 0.0
0.347826086956 3.5 0.0
0.417391304347 3.5 0.0
0.486956521738 3.5 0.0
0.556521739129 3.5 0.0
0.62608695652 3.5 0.0
0.695652173911 3.5 0.0
0.765217391302 3.5 0.0
0.834782608694 3.5 0.0
0.904347826085 3.5 0.0
0.973913043477 3.5 0.0
1.04347826087 3.5 0.0
1.11304347826 3.5 0.0
1.18260869565 3.5 0.0
1.25217391304 3.5 0.0
1.32173913043 3.5 0.0
1.39130434783 3.5 0.0
1.46086956522 3.5 0.0
1.53043478261 3.5 0.0
1.6 3.56430812594 0.0
1.6 3.62270835268 0.0
1.6 3.6757434324 0.0
1.6 3.7239062376 0.0
1.6 3.76764438351 0.0
1.6 3.80736436404 0.0
1.6 3.84343531219 0.0
1.6 3.87619247117 0.0
1.6 3.90594026707 0.0
1.6 3.93295517284 0.0
1.6 3.95748825478 0.0
1.6 3.97976750982 0.0
1.58000000587 4.0 0.0
1.55999996633 4.0 0.0
1.54000002214 4.0 0.0
1.51999997198 4.0 0.0
1.50000000455 4.0 0.0
1.48000000216 4.0 0.0
1.45999997931 4.0 0.0
1.44000002484 4.0 0.0
1.41999997044 4.0 0.0
1.40000002096 4.0 0.0
1.37999999963 4.0 0.0
1.35999999626 4.0 0.0
1.34000002179 4.0 0.0
1.31999997343 4.0 0.0
1.3000000318 4.0 0.0
1.27999998783 4.0 0.0
1.26000000202 4.0 0.0
1.24000001295 4.0 0.0
1.21999998074 4.0 0.0
1.20000003685 4.0 0.0
1.17999998163 4.0 0.0
1.16000001473 4.0 0.0
1.14000000469 4.0 0.0
1.11999999139 4.0 0.0
1.10000003625 4.0 0.0
1.07999997877 4.0 0.0
1.06000002802 4.0 0.0
1.04000000338 4.0 0.0
1.02000000764 4.0 0.0
1.00000002986 4.0 0.0
0.979999980237 4.0 0.0
0.960000035522 4.0 0.0
0.939999990881 4.0 0.0
0.920000014619 4.0 0.0
0.900000017903 4.0 0.0
0.879999986222 4.0 0.0
0.860000037278 4.0 0.0
0.839999982352 4.0 0.0
0.820000022783 4.0 0.0
0.800000000002 4.0 0.0
0.779999977222 4.0 0.0
0.760000017652 4.0 0.0
0.739999962726 4.0 0.0
0.720000013782 4.0 0.0
0.699999982101 4.0 0.0
0.679999985385 4.0 0.0
0.660000009123 4.0 0.0
0.639999964482 4.0 0.0
0.620000019766 4.0 0.0
0.599999970141 4.0 0.0
0.57999999236 4.0 0.0
0.559999996622 4.0 0.0
0.539999971983 4.0 0.0
0.520000021235 4.0 0.0
0.499999963756 4.0 0.0
0.480000008612 4.0 0.0
0.459999995315 4.0 0.0
0.439999985272 4.0 0.0
0.420000018371 4.0 0.0
0.39999996315 4.0 0.0
0.380000019261 4.0 0.0
0.359999987052 4.0 0.0
0.339999997986 4.0 0.0
0.320000012172 4.0 0.0
0.299999968206 4.0 0.0
0.280000026575 4.0 0.0
0.259999978213 4.0 0.0
0.240000003742 4.0 0.0
0.220000000371 4.0 0.0
0.199999979041 4.0 0.0
0.180000029557 4.0 0.0
0.159999975162 4.0 0.0
0.140000020694 4.0 0.0
0.119999997846 4.0 0.0
0.0999999954514 4.0 0.0
0.0800000280232 4.0 0.0
0.0599999778571 4.0 0.0
0.0400000336732 4.0 0.0
0.0199999941324 4.0 0.0
0.0 3.97976750982 0.0
0.0 3.95748825478 0.0
0.0 3.93295517284 0.0
0.0 3.90594026707 0.0
0.0 3.87619247117 0.0
0.0 3.84343531219 0.0
0.0 3.80736436404 0.0
0.0 3.76764438351 0.0
0.0 3.7239062376 0.0
0.0 3.6757434324 0.0
0.0 3.62270835268 0.0
0.0 3.56430812594 0.0
0.249757905714 3.75212552678 0.0
1.35000000902 3.74954526597 0.0
0.488714190926 3.75947467509 0.0
0.727445026698 3.75983525744 0.0
0.962900270309 3.76055270856 0.0
1.17161197633 3.81755162829 0.0
0.130754031542 3.86878251069 0.0
1.46924596846 3.86878251069 0.0
0.369913852535 3.84868154079 0.0
0.603236233099 3.84763103091 0.0
0.843402107212 3.84736931152 0.0
1.05041705507 3.86611282467 0.0
0.250539323282 3.87785527135 0.0
1.34882231626 3.87787871523 0.0
0.468661896861 3.89189320321 0.0
0.704258117309 3.89639128976 0.0
0.94963922804 3.89654080835 0.0
1.25000000748 3.89875296068 0.0
1.12879020517 3.91059303421 0.0
0.548928478218 3.91905583534 0.0
0.7889268651 3.91906062813 0.0
0.0712526194949 3.93011432704 0.0
1.52874738051 3.93011432704 0.0
1.4740071133 3.74293106904 0.0
0.125992886699 3.74293106904 0.0
0.329956761073 3.92118145982 0.0
1.09412206522 3.66725831207 0.0
0.190000004299 3.92542384899 0.0
1.41098423528 3.92728100222 0.0
0.629999992124 3.92414139091 0.0
0.87000001175 3.92414140592 0.0
0.853391941071 3.71944243214 0.0
0.610032822379 3.72536074396 0.0
0.41090315692 3.92892991009 0.0
0.370435019193 3.7251305208 0.0
1.01000001875 3.93130199947 0.0
1.22823348571 3.68694249365 0.0
1.18894423177 3.93487447818 0.0
1.31063576122 3.93502724255 0.0
0.129927636183 3.94112156482 0.0
1.47007236382 3.94112156482 0.0
1.07646504896 3.76194504855 0.0
1.07000000339 3.94017719684 0.0
0.270000002394 3.93875928556 0.0
1.26759839792 3.80243333593 0.0
0.770332946246 3.83880063275 0.0
0.530342720064 3.83880306325 0.0
0.189898092614 3.63474333735 0.0
1.4101772205 3.6313147556 0.0
0.942883893479 3.62966700486 0.0
0.510631148905 3.62429064243 0.0
0.754670889573 3.63369080225 0.0
0.489999986184 3.94463854908 0.0
0.732500655853 3.9452729887 0.0
0.193627936713 3.81528931126 0.0
1.40183871842 3.81461096917 0.0
0.928721275957 3.94715071018 0.0
0.0604617896557 3.86281267064 0.0
1.53953821034 3.86281267065 0.0
1.25036152032 3.94913766834 0.0
0.30096552553 3.81141484704 0.0
0.297089357677 3.66359682597 0.0
0.394212311705 3.61316974741 0.0
0.831051681923 3.94633984116 0.0
0.592085081305 3.94901138542 0.0
0.669405291514 3.95495209798 0.0
1.3611855791 3.94637621082 0.0
0.928496698914 3.82436133158 0.0
0.444093171593 3.8271987226 0.0
0.683378885111 3.8234871366 0.0
0.372430737197 3.95235208784 0.0
1.19348789949 3.87019408468 0.0
1.15124363553 3.95467023547 0.0
0.229287653728 3.96038323295 0.0
0.646635519079 3.61231195482 0.0
0.986819459779 3.84973028271 0.0
1.11214815433 3.84770266014 0.0
1.50610225987 3.6604664246 0.0
0.0938977401332 3.6604664246 0.0
0.531976760298 3.96138656711 0.0
0.451361041931 3.96112773652 0.0
0.771976835888 3.96138886125 0.0
1.53311213884 3.79435404356 0.0
0.066887861162 3.79435404356 0.0
0.970836553066 3.9620233382 0.0
0.311702426505 3.96111572975 0.0
1.31698094247 3.6658628839 0.0
1.11177843379 3.95948388532 0.0
1.15003411964 3.72957279566 0.0
0.890058924798 3.96133576813 0.0
0.169108880648 3.96040269401 0.0
1.42850737314 3.96465656678 0.0
0.0426347993992 3.9610175717 0.0
1.5573652006 3.9610175717 0.0
1.28993057938 3.85776473604 0.0
1.34652710411 3.82072629166 0.0
0.897316840472 3.87585124602 0.0
0.814484972147 3.79171515708 0.0
0.573290986674 3.7879873938 0.0
1.02164717476 3.69631051635 0.0
0.41798215839 3.87594988344 0.0
1.18469655214 3.6045863568 0.0
0.657426542805 3.87734841349 0.0
0.0893439701605 3.9657484063 0.0
1.51065602984 3.9657484063 0.0
0.850202761783 3.61862953305 0.0
0.185775988195 3.86980628439 0.0
1.41422401181 3.86980628439 0.0
0.305957202498 3.87340573583 0.0
0.629999992124 3.96272981278 0.0
0.686026569054 3.68766751472 0.0
1.03220081924 3.96436031967 0.0
0.445441337222 3.69456289967 0.0
1.33308537187 3.96770341358 0.0
1.0249206042 3.60512275769 0.0
0.128645746764 3.81165411571 0.0
1.47135425324 3.81165411571 0.0
1.29077706219 3.96625078806 0.0
1.21302440104 3.96491551313 0.0
0.373320303365 3.89968789902 0.0
0.409457647309 3.96502881891 0.0
1.39076199588 3.96614348387 0.0
1.2156032112 3.76624353786 0.0
0.383301616321 3.78976397621 0.0
0.593246012246 3.8948346816 0.0
0.833004203108 3.89475034107 0.0
0.187583903859 3.70688411961 0.0
1.41241609614 3.70688411961 0.0
1.08573330585 3.89673930733 0.0
1.04303343403 3.81530385578 0.0
0.103644791029 3.90516202075 0.0
1.49635520897 3.90516202075 0.0
1.23586605501 3.85112068621 0.0
0.921814270996 3.70213058021 0.0
0.532219762185 3.7029333087 0.0
1.28217045716 3.7375098981 0.0
0.779621693208 3.70806977531 0.0
0.998890529268 3.88397615296 0.0
0.659406618131 3.76469373474 0.0
0.230043799244 3.91599372373 0.0
1.53690667654 3.72637971331 0.0
0.0630933234627 3.72637971331 0.0
0.153148105836 3.90639761309 0.0
1.4478092366 3.90500627713 0.0
0.512139854501 3.90538519137 0.0
0.750930702019 3.90340708 0.0
0.0409150717909 3.90046251393 0.0
1.55908492821 3.90046251393 0.0
0.702096631597 3.96656725638 0.0
0.246204062466 3.82734823738 0.0
0.872012730916 3.80079945556 0.0
0.313419524246 3.75328100976 0.0
1.26305184675 3.57725747237 0.0
1.04341944162 3.90846795586 0.0
0.697725469476 3.93030230037 0.0
0.27003033309 3.96477332623 0.0
0.632456188669 3.80120134001 0.0
0.55988813035 3.96676596088 0.0
0.798125231733 3.9668778541 0.0
0.861599835739 3.96514225679 0.0
0.130196681328 3.96566148827 0.0
1.46980331867 3.96566148827 0.0
0.337465698618 3.96873835045 0.0
1.10690030388 3.57445060302 0.0
1.07038768144 3.96631210642 0.0
0.201908835349 3.96783542832 0.0
1.17640357301 3.96795841043 0.0
0.482502283815 3.8454083814 0.0
1.37723451734 3.90442225885 0.0
0.722497886517 3.84543272537 0.0
0.254749007352 3.57960328731 0.0
0.449206209982 3.91785378051 0.0
0.907803563184 3.91575967116 0.0
0.997592319531 3.96832081731 0.0
1.3597087328 3.59165409162 0.0
0.797785363131 3.87112617582 0.0
0.557788209884 3.87112741711 0.0
0.133223775006 3.57024633267 0.0
1.46673023696 3.57019175074 0.0
0.296361477075 3.90524448543 0.0
1.29555045611 3.90092076583 0.0
1.11951450862 3.79592056714 0.0
0.341558640376 3.57546927501 0.0
0.974255514016 3.92370320024 0.0
0.664786082443 3.91707165091 0.0
1.1442561544 3.86460464827 0.0
0.430695849932 3.74774845865 0.0
1.22439218721 3.92431164104 0.0
0.917330800791 3.76752811157 0.0
0.0995806821614 3.83759752714 0.0
1.50041931784 3.83759752714 0.0
0.586492545959 3.6571718064 0.0
1.16809690663 3.90376349956 0.0
0.490525946651 3.9687439861 0.0
0.170108846494 3.77025381333 0.0
0.726723612771 3.96611364881 0.0
1.42998397347 3.77014833166 0.0
1.55978981314 3.82099569701 0.0
0.0402101868575 3.82099569701 0.0
1.10043652243 3.92805072974 0.0
1.34111814411 3.91924529479 0.0
1.27430066613 3.93505265881 0.0
0.56431092584 3.57086686051 0.0
0.930516510487 3.96969091611 0.0
1.17713743504 3.67180033503 0.0
0.801256410508 3.5635758738 0.0
1.37979186382 3.84566323689 0.0
1.02277822921 3.7577258162 0.0
0.252009847995 3.68167957306 0.0
0.0497138210057 3.58866012032 0.0
1.55028617899 3.58866012032 0.0
0.466046622144 3.57331739513 0.0
0.343019074867 3.81481221655 0.0
0.0645235269233 3.96909610548 0.0
1.53547647308 3.96909610548 0.0
0.0310141903995 3.92955737583 0.0
[...]
POINT_DATA 856
VECTORS Displacement float
0.0 0.0 0
0.0 0.0 0
0.00808210316078 -0.00148132885967 0
-0.0080110448669 -0.00145721632169 0
0.0 0.0 0
0.0 0.0 0
0.0 0.0 0
0.0 0.0 0
0.0 0.0 0
0.0 0.0 0
0.0 0.0 0
0.0 0.0 0
0.0 0.0 0
0.0 0.0 0
0.0 0.0 0
0.0 0.0 0
0.0 0.0 0
0.0 0.0 0
0.0 0.0 0
0.0 0.0 0
0.0 0.0 0
0.0 0.0 0
0.0 0.0 0
0.0 0.0 0
0.0 0.0 0
0.0 0.0 0
0.00631097578851 -0.00459970255476 0
0.0107108328214 -0.00582862346584 0
0.0136684919938 -0.00573889915456 0
0.0150360909804 -0.00501049524312 0
0.0153683258 -0.00414725661332 0
0.0149866002598 -0.00328217484233 0
0.014075128892 -0.00259818348249 0
0.0130255625578 -0.00208103774526 0
0.0118582110868 -0.00173684918176 0
0.0107385232836 -0.001571631803 0
0.00972888517775 -0.00149801657231 0
0.00884933267367 -0.00147941306123 0
0.00808409318335 -0.00223275706308 0
0.00807603001679 -0.00295014186486 0
0.00803291796393 -0.00363843054099 0
0.00793650604264 -0.00430860147843 0
0.00777800337454 -0.00498554051917 0
0.00755400049052 -0.00570424025763 0
0.00724795169841 -0.0064676125225 0
0.00688214856477 -0.00733552679812 0
0.00642687669771 -0.00830833034913 0
0.00593150396372 -0.00943741662158 0
0.00534743845409 -0.010717495758 0
0.0047197784652 -0.0122238816553 0
0.00400541182057 -0.0139644085342 0
0.00326358654061 -0.0160087837249 0
0.00254047372627 -0.0183453451344 0
0.00170923288554 -0.0210840177339 0
0.000947031159857 -0.0242450977375 0
0.000266861353783 -0.0279353972879 0
-0.000382809122213 -0.0322411918975 0
-0.00101876692613 -0.0374414985901 0
-0.0012137210649 -0.0436489724925 0
8.25691015416e-05 -0.0529425237469 0
0.00147275701797 -0.0615991319183 0
0.00280436417808 -0.0697042475652 0
0.00412351503891 -0.0773122552773 0
0.00516042558697 -0.0844821365157 0
0.00607327896432 -0.0911811273148 0
0.00669087567838 -0.0974502237514 0
0.00713337020769 -0.103257484807 0
0.00732118370615 -0.108610002213 0
0.00733048351669 -0.113488584551 0
0.00712296440504 -0.117891683853 0
0.00671923827437 -0.121812666577 0
0.00616543740676 -0.125231234793 0
0.00545623610826 -0.128140658846 0
0.00460489895407 -0.130538690419 0
0.00364368065364 -0.132413252907 0
0.00259625182058 -0.133761235094 0
0.00144667263812 -0.134569130823 0
0.000200636276518 -0.134800563508 0
-0.00114642280844 -0.134575537517 0
-0.00236807342512 -0.133774855636 0
-0.00345926759537 -0.132434132576 0
-0.00444828428254 -0.130560244786 0
-0.00531864566752 -0.128161002162 0
-0.00603729964944 -0.125249518424 0
-0.00659611875394 -0.1218319 0
-0.00699872642337 -0.117917621323 0
-0.00723109206659 -0.113513830584 0
-0.00721104312008 -0.108641835012 0
-0.00704931091387 -0.103286633815 0
-0.00661495246251 -0.0974793435738 0
-0.00598504012476 -0.0912151419282 0
-0.00511519992572 -0.0845043168974 0
-0.00407849098101 -0.077336823566 0
-0.00273900797045 -0.0697410526627 0
-0.00139657272119 -0.0616363978076 0
5.84355177731e-05 -0.0529956450059 0
0.00123533865593 -0.0436769415612 0
0.00109794909291 -0.0373993441839 0
0.0004781651141 -0.0322659528348 0
-0.000188583933508 -0.0279307633728 0
-0.000913480800164 -0.0242505878523 0
-0.00171724676378 -0.0210748535459 0
-0.00250434906983 -0.0183561150286 0
-0.00322693454013 -0.0160017276542 0
-0.00397379659076 -0.0139747073923 0
-0.00463495052019 -0.0122297862112 0
-0.00527953364003 -0.0107194458325 0
-0.00586601585529 -0.00943893223508 0
-0.00635768447965 -0.00831042401979 0
-0.00681018573266 -0.00733564831788 0
-0.00717576846553 -0.00646306800618 0
-0.00748282296194 -0.00569648370696 0
-0.00770654317145 -0.00497553658575 0
-0.00786507682883 -0.0042955194346 0
-0.00796164955986 -0.00362244209211 0
-0.00800489068795 -0.00293139142884 0
-0.00801302415257 -0.00221133235298 0
-0.00878101603378 -0.00145531169908 0
-0.00966358822551 -0.00147399143467 0
-0.0106763918096 -0.00154771278072 0
-0.0117993538831 -0.00171292481203 0
-0.0129703707268 -0.00205676212277 0
-0.0140244297697 -0.00257337141732 0
-0.014940931899 -0.00325670694293 0
-0.0153296368609 -0.00412090308832 0
-0.0150064785551 -0.0049849769122 0
-0.0136484005003 -0.00571732011895 0
-0.010695817199 -0.00581339156419 0
-0.00629806961845 -0.00458925297813 0
-0.0176417547004 -0.0104757002016 0
0.0176251471154 -0.0103485034022 0
-0.0189885053531 -0.0371505114091 0
-0.00570287856717 -0.0604896991558 0
0.0122610560611 -0.0548578606205 0
0.0200381710576 -0.0350174854664 0
-0.0136561313785 -0.005843118129 0
0.0137069155931 -0.00585765000392 0
-0.0184478363708 -0.0269910497736 0
-0.0143287762231 -0.0716621795684 0
0.0035783829459 -0.0861746987095 0
0.0166471254629 -0.0664279103143 0
-0.0143194395182 -0.0125088589165 0
0.0143870389811 -0.0125616204173 0
-0.0173183408786 -0.0520695677775 0
-0.00704634493695 -0.0973355336503 0
0.0106475652566 -0.0911319112024 0
0.0148400368769 -0.0251902614869 0
0.0160306056458 -0.0551832344613 0
-0.0140781565942 -0.0773061525706 0
-0.00073895458626 -0.108581547886 0
-0.0108233725787 -0.00397547809704 0
0.0108843813496 -0.00399003702364 0
0.0158988310413 -0.0051731118587 0
-0.0158617016695 -0.005167877757 0
-0.0121755752351 -0.0221306427574 0
0.015165565448 -0.0247184024184 0
-0.0108487017315 -0.00850815325172 0
0.0108036173097 -0.00844141158154 0
-0.0107588978593 -0.0954333193874 0
0.00503026870594 -0.107737379744 0
0.00403429158191 -0.0504150233835 0
-0.0131482728916 -0.0442874911416 0
-0.013346975943 -0.0395600194983 0
-0.018908070359 -0.0191425668147 0
0.0121592549812 -0.0895016118842 0
0.0174619761396 -0.0162421277559 0
0.0126276372842 -0.0398180355262 0
0.0102615069996 -0.0166630028016 0
-0.0101322257333 -0.00588187123498 0
0.0101943128319 -0.0058856794559 0
0.0180716684079 -0.0422542163697 0
0.0128585293265 -0.0766450304585 0
-0.00981389618769 -0.014544670984 0
0.0190400891145 -0.0195482449584 0
-0.00235208600941 -0.0840077928977 0
-0.0179012969071 -0.0572671470227 0
-0.0123136707984 -0.00459402081549 0
0.0121720851705 -0.00451887594491 0
0.00744241791776 -0.0260852665947 0
-0.0123926540264 -0.0182629432436 0
-0.00256579127682 -0.0292759682603 0
-0.0125801057279 -0.0656019184316 0
-0.00445043142493 -0.114401406832 0
-0.0160935185203 -0.00823685925711 0
0.0162422508643 -0.00847425578082 0
0.00807797226503 -0.108334589195 0
-0.013639400556 -0.00389005011367 0
0.0136934942615 -0.00390594048084 0
0.00911860742059 -0.0256616424976 0
-0.0181856207397 -0.0163210520596 0
-0.0155358202975 -0.0097588346536 0
-0.0127722793756 -0.0111006620371 0
0.00221517572416 -0.116722028286 0
-0.0109361113315 -0.0942515031899 0
-0.00780486593438 -0.110299940796 0
0.00924540200204 -0.0117907379178 0
0.0101975028122 -0.0741271213273 0
-0.0198842869315 -0.0388930516815 0
-0.00923882457794 -0.0749925652771 0
-0.00899047427102 -0.0303656996117 0
0.0182283252938 -0.0351960640473 0
0.010765982786 -0.0531043391059 0
-0.0081243906407 -0.0110980592758 0
-0.00723728689002 -0.0219475602929 0
0.0138248099569 -0.0737140804972 0
0.0190254735886 -0.0503768592298 0
0.0130839913601 -0.00382403032138 0
-0.0130693179837 -0.00381045933284 0
-0.0106430176793 -0.0813810606701 0
-0.00982677563606 -0.0546286799489 0
-0.00176192342974 -0.12165774801 0
0.0155177012697 -0.00433429812677 0
-0.0154722840743 -0.0043174517071 0
0.00924721319115 -0.105396121675 0
-0.00725566229454 -0.0195761609509 0
0.0154887892713 -0.00915115231927 0
0.0107393704013 -0.0672741966071 0
0.0190127206513 -0.0281796577362 0
0.00573630054791 -0.117394273408 0
-0.00880255433785 -0.0075419893901 0
0.00858822136901 -0.0076734055943 0
-0.00950975159389 -0.00302310229938 0
0.00957544071015 -0.00304152567704 0
0.0167153291467 -0.0184398920798 0
0.0170109050675 -0.0121214703239 0
0.00752988513519 -0.0912547230823 0
0.00121852588186 -0.0708012328594 0
-0.016273533261 -0.0539467098988 0
0.0139600798711 -0.0356413676622 0
-0.0180081229003 -0.0380785372138 0
0.0118798418132 -0.0110978770276 0
-0.0105283373181 -0.0868613831171 0
-0.00916287602645 -0.00454293548925 0
0.00922943114047 -0.00455480348587 0
0.00262176722553 -0.0255073513796 0
-0.0139910638585 -0.00812868692879 0
0.0140393562909 -0.00812448728752 0
-0.0156452854938 -0.0182347673264 0
-0.00907027558983 -0.105729057015 0
-0.00769895891492 -0.040415326479 0
0.0103006908159 -0.091921056515 0
-0.0176673387912 -0.0234208153184 0
0.0070285544394 -0.014355612803 0
0.00941335275191 -0.0180187725458 0
-0.0154987396471 -0.00565869025107 0
0.0155588868626 -0.00567281800758 0
0.00668819523145 -0.0192652579817 0
0.00717400504621 -0.0338198141554 0
-0.0153677739996 -0.0296673478188 0
-0.00778446243802 -0.0401870050579 0
0.00800807033657 -0.00975871159188 0
0.0199013357583 -0.0238885751633 0
-0.0199665745233 -0.0255319416604 0
-0.0136380058591 -0.081367090639 0
0.00258249847254 -0.100653670235 0
-0.0157770208157 -0.00633063049708 0
0.0157775916576 -0.00630313899981 0
0.0164130594699 -0.064401150783 0
0.0170910479819 -0.0573152466637 0
-0.0119657749458 -0.00497405988765 0
0.0120228402146 -0.00498577073858 0
0.0183165960726 -0.0261945171154 0
0.00850454349577 -0.0435814546949 0
-0.0159895103258 -0.0328512556836 0
0.0186118660454 -0.0150448599274 0
-0.00151564021348 -0.048040235014 0
0.0137348501812 -0.0801667094719 0
-0.0107677853688 -0.0576727587584 0
-0.0115534883382 -0.0110279877528 0
0.0153318148123 -0.00441165042059 0
-0.0153021521454 -0.00439494608079 0
-0.011941773636 -0.00672774812359 0
0.0120760642272 -0.00669664148773 0
-0.0158677118073 -0.0654342853943 0
-0.00362146777318 -0.102649466204 0
-0.0121105528699 -0.00315933811231 0
0.0121688083817 -0.00317772577467 0
-0.00588971028403 -0.118118250612 0
-0.0166325303609 -0.011707440628 0
0.00587141778487 -0.0716881254205 0
-0.0187706269241 -0.0154276071606 0
0.00925888040637 -0.00592393226247 0
0.0145599103176 -0.0768546461797 0
-0.00688569930689 -0.106701853799 0
-0.00723086623723 -0.0146520049045 0
-0.0128705690664 -0.0641739312802 0
-0.010031226356 -0.0903553474728 0
-1.90646670944e-05 -0.123875282583 0
0.00404507027418 -0.121102237702 0
-0.00888770332422 -0.00594657740483 0
0.00895535039283 -0.00595140603 0
-0.00609144348211 -0.0235517346563 0
0.00850060722681 -0.0103443233801 0
0.0101355209426 -0.081561953354 0
-0.00792597003463 -0.00932391761004 0
0.00772274829669 -0.0450136568643 0
-0.0191094309771 -0.0488315933533 0
0.0123807477333 -0.0104677984337 0
-0.00616006300934 -0.083962312741 0
-0.00875215587054 -0.00404762411211 0
-0.0152968464992 -0.0497324399081 0
0.00764428047118 -0.101800506836 0
0.00954467983365 -0.101341366424 0
0.00969972971587 -0.00430357036984 0
-0.000116822297022 -0.0939508929767 0
-0.0160318427018 -0.0690414747738 0
-0.00673807834129 -0.00205092080583 0
0.00675078522782 -0.00205466314104 0
-0.0130964135533 -0.0173902451455 0
0.013641672033 -0.0183387150892 0
0.0195902999352 -0.0413034298793 0
-0.00908516848312 -0.00592832452778 0
0.0110850105936 -0.0945580259198 0
-0.00915001049929 -0.0988309948102 0
0.018836858017 -0.0455829577392 0
-0.0195562930397 -0.0280118038024 0
0.0129099444312 -0.0307006448995 0
0.00917291768379 -0.0601428834388 0
-0.0146385342763 -0.00492202771349 0
0.0146869666837 -0.00493384251439 0
-0.011779761848 -0.0284785820506 0
0.0162592542496 -0.0436067080431 0
-0.00924959271254 -0.0694455856113 0
-0.0164078331857 -0.00674877815787 0
-0.00455028890183 -0.120482506489 0
0.0164511187165 -0.00675236021714 0
0.0148750223944 -0.00375944693781 0
-0.0148273734779 -0.00374016764378 0
0.0144067313071 -0.0659205517836 0
0.0115277577413 -0.0134329209735 0
0.0105973158286 -0.0215390569541 0
-0.00713471316253 -0.011699274212 0
0.00747963682406 -0.114614006114 0
0.0167393869859 -0.0188672655651 0
1.21680673768e-05 -0.0131053303861 0
0.0155434904427 -0.0100093954948 0
0.0156933959896 -0.0479818393222 0
-0.0157282556195 -0.00831923213722 0
-0.00800022615784 -0.00299467409255 0
0.00801417705067 -0.00300508876408 0
-0.0088860579274 -0.00920836950201 0
-0.0190779479836 -0.021447222611 0
-0.00912615061196 -0.00374565156917 0
0.00919302120906 -0.00376112985466 0
-0.010851933504 -0.00270895939724 0
0.0109135524217 -0.00272879892884 0
-0.00341123193415 -0.0144541253552 0
-0.0158304271786 -0.0221523141093 0
-0.0163224289702 -0.0138942523738 0
-0.0183142561644 -0.0463590795745 0
-0.00279503555426 -0.068395274432 0
0.00330057907449 -0.0148977920199 0
0.0183135598286 -0.0141784454338 0
-0.0149316372026 -0.00688043372966 0
0.00500034462222 -0.0257165207105 0
0.0149616421561 -0.0067394910652 0
0.0198240858092 -0.0259273899079 0
0.0113994014432 -0.080048666364 0
0.00714576478183 -0.06370847052 0
0.000589910226511 -0.0842711554272 0
-0.0164736411088 -0.0636193024147 0
0.00697433961027 -0.0123720629644 0
-0.0105397428429 -0.00486540810111 0
0.0106008727536 -0.00487619454756 0
-0.00911609875497 -0.103309522503 0
-0.00782791111508 -0.112967190159 0
0.0182215766869 -0.0555615733084 0
-0.0119689854658 -0.00406245170573 0
0.0120273252139 -0.00407620136503 0
-0.0149934308565 -0.00475771974569 0
0.0150141494359 -0.00476453911011 0
0.00202109651366 -0.12859193767 0
0.00508273284676 -0.0979873455566 0
-0.0054705003033 -0.0337700563764 0
-0.00906220627842 -0.00246703623985 0
0.00912950747814 -0.00248755055157 0
0.0126686485876 -0.0639507450181 0
-0.0121184924767 -0.0859397086041 0
0.00549741341948 -0.0169107472379 0
-0.0145485686557 -0.0100383453325 0
0.0175004765448 -0.0321250413442 0
-0.0104458318568 -0.00684698672637 0
0.0155361661844 -0.0364054346599 0
0.0106676717075 -0.00695196614348 0
-0.00603045897476 -0.04749162199 0
0.00724066721465 -0.0809207006584 0
0.0131314957286 -0.0587754460347 0
-0.0116531449585 -0.0745917729833 0
0.00546513168556 -0.0126806153677 0
-0.0194641712178 -0.0330533171142 0
-0.0125480018679 -0.00936658187181 0
0.0163304968078 -0.00824133244731 0
0.00745272825694 -0.00869936641792 0
-0.017829494675 -0.0584954451438 0
-0.00392755189881 -0.0922351154449 0
-0.0196479621411 -0.0423365315399 0
-0.00617323158702 -0.012953697816 0
-0.0129593425188 -0.0847318934215 0
0.00116822644469 -0.110153023814 0
-0.00642810244839 -0.0717663369706 0
-0.0117743229308 -0.0266583951344 0
-0.0068574961462 -0.116530462127 0
-0.00847425318115 -0.0864717543344 0
-0.013195834109 -0.00317847409995 0
0.0132508784966 -0.0031979098287 0
0.0126841364789 -0.0836177020344 0
0.0116369991476 -0.0422465009237 0
0.00699794528569 -0.00248431921846 0
-0.017475751119 -0.0218921632739 0
-0.00535973496929 -0.016831413299 0
-0.0170827102545 -0.00975469142679 0
-0.0122582484978 -0.0131279691246 0
-0.0165285096941 -0.0421314496172 0
-0.0188551157622 -0.0444502663627 0
-0.0161123779652 -0.0143151137647 0
-0.00661585404266 -0.00235779278021 0
-0.00670744281219 -0.063901755695 0
-0.00793645851613 -0.07773286624 0
-0.00308251089283 -0.126461975962 0
0.0177319708858 -0.054824800832 0
-0.0134645359061 -0.00472351885858 0
0.0135211459271 -0.00473343138826 0
0.0139142303879 -0.00428467135291 0
-0.0138946676008 -0.00426839439979 0
0.0171970973043 -0.00979908215465 0
-0.000349822252153 -0.0591372213577 0
0.00776274931137 -0.11446441774 0
-0.00801043964866 -0.00673507552116 0
0.00805205171164 -0.00678015397406 0
-0.0180392853412 -0.014508155426 0
-0.00508225435939 -0.0280906141877 0
0.00636279313316 -0.120755695965 0
0.00964551192565 -0.0100285133082 0
-0.0135660747622 -0.0712016882433 0
-0.0034844432222 -0.110708513901 0
0.00820166021213 -0.0774827213851 0
-0.00840997776145 -0.00527302395415 0
0.00847869307982 -0.00528134183948 0
0.0144736926381 -0.049849143509 0
0.018071947912 -0.0159055404254 0
-0.00942560713238 -0.0973237742997 0
0.0109624161642 -0.0292613031132 0
0.0145435707371 -0.0104736314032 0
0.0168480612847 -0.0299316685427 0
0.0087383216604 -0.09001256183 0
-0.0137680287554 -0.0165303630566 0
0.0138108339881 -0.0146010871846 0
-0.0122530946507 -0.0830204283673 0
-0.000534052559777 -0.116196743881 0
-0.00951034583315 -0.00959319498175 0
-0.00531800756255 -0.105874215794 0
-0.010675791275 -0.0171667101496 0
0.0160426812598 -0.0145627097995 0
0.00159673374268 -0.0405190492286 0
0.016916278038 -0.00793362708559 0
0.00464843705755 -0.0219630409158 0
-0.0050024506992 -0.0476841673871 0
0.0153370702959 -0.0711220449143 0
-0.0174822254596 -0.0299245335598 0
-0.0151149338047 -0.0575749738505 0
0.00409694218051 -0.0302979911129 0
0.0126971873328 -0.00893435729895 0
-0.0168985938152 -0.00795226673496 0
0.00502852159507 -0.0402041176418 0
0.00641962334943 -0.0547406188504 0
-0.00540352874181 -0.0276167194017 0
0.0153828574236 -0.00394424768133 0
-0.015339346657 -0.00392320578026 0
0.00975241863118 -0.0991341202294 0
0.0177181475071 -0.0597509280759 0
-0.0112239346564 -0.0452843639495 0
0.0198365982761 -0.0290938778833 0
-0.0130704698311 -0.00613847318099 0
-0.0068273063257 -0.010499886119 0
-0.00682556484864 -0.00524210862302 0
0.00375934728739 -0.114953833237 0
-0.010438892985 -0.0981854303319 0
-0.00913394321162 -0.104038211955 0
-0.00492745315892 -0.0210003522156 0
-0.0158362780522 -0.0420395422363 0
-0.00946165212149 -0.00529580597123 0
-0.0093992550919 -0.0225077052134 0
0.00952716368873 -0.00530392985976 0
0.0168180182572 -0.0234683123215 0
-0.00843131437255 -0.0894445816738 0
-0.00107562140656 -0.127198573254 0
0.0108966920815 -0.0964422825936 0
-0.0178964718841 -0.0129982944237 0
-0.0106623446308 -0.033887607837 0
0.0150154490128 -0.0622289988609 0
0.0193690571666 -0.0382566320234 0
0.0194702723208 -0.0306612297008 0
0.0110256576854 -0.0850289917536 0
0.00693201845084 -0.109565048871 0
-0.0123892750132 -0.0334695642548 0
0.0091645548536 -0.00867743600141 0
-0.0195433823836 -0.0200738428879 0
0.0046132638888 -0.124834591954 0
-0.017639415192 -0.0114925115369 0
0.00706986816618 -0.00531122814364 0
-0.00997922742039 -0.0122475594716 0
-0.0092482986734 -0.00656186224259 0
0.0093763397161 -0.00678930078104 0
0.00601887209059 -0.0612110264873 0
-0.00862306520442 -0.00319234057582 0
0.00869184281611 -0.0032100717942 0
0.00855348553934 -0.107794970192 0
-0.00745697335393 -0.00856050267423 0
-0.0158240189811 -0.00495033665044 0
0.0158648068606 -0.00496241906021 0
0.0189964283585 -0.0223437436441 0
0.0114586459024 -0.0738881411877 0
0.0124275627076 -0.0254650873842 0
-0.00830771571653 -0.0168002485818 0
0.00337243257157 -0.077104441902 0
-0.00320171865682 -0.0084972433573 0
0.0137685566436 -0.0817927665081 0
-0.00894088947165 -0.094070644882 0
-0.0148505833572 -0.0639481430968 0
-0.0160219804683 -0.0686809265978 0
-0.0018929691271 -0.100307314533 0
-0.00995319812181 -0.00230669891668 0
0.0100175479825 -0.00232786277972 0
-0.0200223430472 -0.0340790460189 0
0.00973768409296 -0.030427357484 0
-0.0114582239976 -0.00579907054919 0
-0.00805670877577 -0.111118255106 0
0.011527169119 -0.00580931735767 0
0.00806907010924 -0.0164754328772 0
0.00334741177416 -0.107640260766 0
-0.0175703670141 -0.0187287251657 0
-0.0138342111259 -0.0536599950323 0
0.0148208297919 -0.0132666056465 0
-0.0120895806408 -0.0897645351858 0
-0.00990999872694 -0.00364847239392 0
0.00997415574443 -0.00366439745939 0
0.0194284641882 -0.0191346104136 0
0.0125964743856 -0.00394000160144 0
-0.0126168145996 -0.00394736564317 0
0.00948424940393 -0.0137603392748 0
0.00191702184265 -0.092446777943 0
-0.0150463663062 -0.0729547906102 0
0.0133281712858 -0.0162398959538 0
0.0131607558826 -0.0262831011728 0
-0.0146996747393 -0.00428212653981 0
0.0147222320885 -0.00429555947277 0
-0.0141071290008 -0.0150881804389 0
-0.00542628338068 -0.00688101461343 0
0.00648684643401 -0.0111648269873 0
0.0173057140465 -0.0130475849402 0
0.00894479381516 -0.100268184977 0
-0.0133915758243 -0.0068353671242 0
-0.00921768163872 -0.0350369258517 0
0.0134328847653 -0.00682451543802 0
0.0182667684987 -0.020987263354 0
-0.00510216304118 -0.12455075095 0
0.00973050888203 -0.0884189539282 0
0.00673545262718 -0.00629680194627 0
0.0045940250086 -0.0397175175495 0
0.0175238292023 -0.011181209496 0
0.0117671680486 -0.0452974014336 0
0.0198659299069 -0.041906504898 0
0.0139891300291 -0.0104692426816 0
0.00619827792515 -0.00878606179228 0
-0.0176490501046 -0.0316599205702 0
-0.00831963073678 -0.00460468637784 0
0.0193221015873 -0.0363178180551 0
0.00838909224858 -0.00461629875573 0
0.016260478665 -0.0407673555462 0
-0.0127839368873 -0.0577783851607 0
-0.0122844008401 -0.00785540452909 0