# vtk DataFile Version 2.0
Generated with Solid Solver
ASCII
DATASET UNSTRUCTURED_GRID
POINTS 856 float 
0.0 3.5 0.0
1.6 3.5 0.0
1.6 4.0 0.0
0.0 4.0 0.0
0.0695652173912 3.5 0.0
0.139130434782 3.5 0.0
0.208695652174 3.5 0.0
0.278260869565 3.5 0.0
0.347826086956 3.5 0.0
0.417391304347 3.5 0.0
0.486956521738 3.5 0.0
0.556521739129 3.5 0.0
0.62608695652 3.5 0.0
0.695652173911 3.5 0.0
0.765217391302 3.5 0.0
0.834782608694 3.5 0.0
0.904347826085 3.5 0.0
0.973913043477 3.5 0.0
1.04347826087 3.5 0.0
1.11304347826 3.5 0.0
1.18260869565 3.5 0.0
1.25217391304 3.5 0.0
1.32173913043 3.5 0.0
1.39130434783 3.5 0.0
1.46086956522 3.5 0.0
1.53043478261 3.5 0.0
1.6 3.56430812594 0.0
1.6 3.62270835268 0.0
1.6 3.6757434324 0.0
1.6 3.7239062376 0.0
1.6 3.76764438351 0.0
1.6 3.80736436404 0.0
1.6 3.84343531219 0.0
1.6 3.87619247117 0.0
1.6 3.90594026707 0.0
1.6 3.93295517284 0.0
1.6 3.95748825478 0.0
1.6 3.97976750982 0.0
1.58000000587 4.0 0.0
1.55999996633 4.0 0.0
1.54000002214 4.0 0.0
1.51999997198 4.0 0.0
1.50000000455 4.0 0.0
1.48000000216 4.0 0.0
1.45999997931 4.0 0.0
1.44000002484 4.0 0.0
1.41999997044 4.0 0.0
1.40000002096 4.0 0.0
1.37999999963 4.0 0.0
1.35999999626 4.0 0.0
1.34000002179 4.0 0.0
1.31999997343 4.0 0.0
1.3000000318 4.0 0.0
1.27999998783 4.0 0.0
1.26000000202 4.0 0.0
1.24000001295 4.0 0.0
1.21999998074 4.0 0.0
1.20000003685 4.0 0.0
1.17999998163 4.0 0.0
1.16000001473 4.0 0.0
1.14000000469 4.0 0.0
1.11999999139 4.0 0.0
1.10000003625 4.0 0.0
1.07999997877 4.0 0.0
1.06000002802 4.0 0.0
1.04000000338 4.0 0.0
1.02000000764 4.0 0.0
1.00000002986 4.0 0.0
0.979999980237 4.0 0.0
0.960000035522 4.0 0.0
0.939999990881 4.0 0.0
0.920000014619 4.0 0.0
0.900000017903 4.0 0.0
0.879999986222 4.0 0.0
0.860000037278 4.0 0.0
0.839999982352 4.0 0.0
0.820000022783 4.0 0.0
0.800000000002 4.0 0.0
0.779999977222 4.0 0.0
0.760000017652 4.0 0.0
0.739999962726 4.0 0.0
0.720000013782 4.0 0.0
0.699999982101 4.0 0.0
0.679999985385 4.0 0.0
0.660000009123 4.0 0.0
0.639999964482 4.0 0.0
0.620000019766 4.0 0.0
0.599999970141 4.0 0.0
0.57999999236 4.0 0.0
0.559999996622 4.0 0.0
0.539999971983 4.0 0.0
0.520000021235 4.0 0.0
0.499999963756 4.0 0.0
0.480000008612 4.0 0.0
0.459999995315 4.0 0.0
0.439999985272 4.0 0.0
0.420000018371 4.0 0.0
0.39999996315 4.0 0.0
0.380000019261 4.0 0.0
0.359999987052 4.0 0.0
0.339999997986 4.0 0.0
0.320000012172 4.0 0.0
0.299999968206 4.0 0.0
0.280000026575 4.0 0.0
0.259999978213 4.0 0.0
0.240000003742 4.0 0.0
0.220000000371 4.0 0.0
0.199999979041 4.0 0.0
0.180000029557 4.0 0.0
0.159999975162 4.0 0.0
0.140000020694 4.0 0.0
0.119999997846 4.0 0.0
0.0999999954514 4.0 0.0
0.0800000280232 4.0 0.0
0.0599999778571 4.0 0.0
0.0400000336732 4.0 0.0
0.0199999941324 4.0 0.0
0.0 3.97976750982 0.0
0.0 3.95748825478 0.0
0.0 3.93295517284 0.0
0.0 3.90594026707 0.0
0.0 3.87619247117 0.0
0.0 3.84343531219 0.0
0.0 3.80736436404 0.0
0.0 3.76764438351 0.0
0.0 3.7239062376 0.0
0.0 3.6757434324 0.0
0.0 3.62270835268 0.0
0.0 3.56430812594 0.0
0.249757905714 3.75212552678 0.0
1.35000000902 3.74954526597 0.0
0.488714190926 3.75947467509 0.0
0.727445026698 3.75983525744 0.0
0.962900270309 3.76055270856 0.0
1.17161197633 3.81755162829 0.0
0.130754031542 3.86878251069 0.0
1.46924596846 3.86878251069 0.0
0.369913852535 3.84868154079 0.0
0.603236233099 3.84763103091 0.0
0.843402107212 3.84736931152 0.0
1.05041705507 3.86611282467 0.0
0.250539323282 3.87785527135 0.0
1.34882231626 3.87787871523 0.0
0.468661896861 3.89189320321 0.0
0.704258117309 3.89639128976 0.0
0.94963922804 3.89654080835 0.0
1.25000000748 3.89875296068 0.0
1.12879020517 3.91059303421 0.0
0.548928478218 3.91905583534 0.0
0.7889268651 3.91906062813 0.0
0.0712526194949 3.93011432704 0.0
1.52874738051 3.93011432704 0.0
1.4740071133 3.74293106904 0.0
0.125992886699 3.74293106904 0.0
0.329956761073 3.92118145982 0.0
1.09412206522 3.66725831207 0.0
0.190000004299 3.92542384899 0.0
1.41098423528 3.92728100222 0.0
0.629999992124 3.92414139091 0.0
0.87000001175 3.92414140592 0.0
0.853391941071 3.71944243214 0.0
0.610032822379 3.72536074396 0.0
0.41090315692 3.92892991009 0.0
0.370435019193 3.7251305208 0.0
1.01000001875 3.93130199947 0.0
1.22823348571 3.68694249365 0.0
1.18894423177 3.93487447818 0.0
1.31063576122 3.93502724255 0.0
0.129927636183 3.94112156482 0.0
1.47007236382 3.94112156482 0.0
1.07646504896 3.76194504855 0.0
1.07000000339 3.94017719684 0.0
0.270000002394 3.93875928556 0.0
1.26759839792 3.80243333593 0.0
0.770332946246 3.83880063275 0.0
0.530342720064 3.83880306325 0.0
0.189898092614 3.63474333735 0.0
1.4101772205 3.6313147556 0.0
0.942883893479 3.62966700486 0.0
0.510631148905 3.62429064243 0.0
0.754670889573 3.63369080225 0.0
0.489999986184 3.94463854908 0.0
0.732500655853 3.9452729887 0.0
0.193627936713 3.81528931126 0.0
1.40183871842 3.81461096917 0.0
0.928721275957 3.94715071018 0.0
0.0604617896557 3.86281267064 0.0
1.53953821034 3.86281267065 0.0
1.25036152032 3.94913766834 0.0
0.30096552553 3.81141484704 0.0
0.297089357677 3.66359682597 0.0
0.394212311705 3.61316974741 0.0
0.831051681923 3.94633984116 0.0
0.592085081305 3.94901138542 0.0
0.669405291514 3.95495209798 0.0
1.3611855791 3.94637621082 0.0
0.928496698914 3.82436133158 0.0
0.444093171593 3.8271987226 0.0
0.683378885111 3.8234871366 0.0
0.372430737197 3.95235208784 0.0
1.19348789949 3.87019408468 0.0
1.15124363553 3.95467023547 0.0
0.229287653728 3.96038323295 0.0
0.646635519079 3.61231195482 0.0
0.986819459779 3.84973028271 0.0
1.11214815433 3.84770266014 0.0
1.50610225987 3.6604664246 0.0
0.0938977401332 3.6604664246 0.0
0.531976760298 3.96138656711 0.0
0.451361041931 3.96112773652 0.0
0.771976835888 3.96138886125 0.0
1.53311213884 3.79435404356 0.0
0.066887861162 3.79435404356 0.0
0.970836553066 3.9620233382 0.0
0.311702426505 3.96111572975 0.0
1.31698094247 3.6658628839 0.0
1.11177843379 3.95948388532 0.0
1.15003411964 3.72957279566 0.0
0.890058924798 3.96133576813 0.0
0.169108880648 3.96040269401 0.0
1.42850737314 3.96465656678 0.0
0.0426347993992 3.9610175717 0.0
1.5573652006 3.9610175717 0.0
1.28993057938 3.85776473604 0.0
1.34652710411 3.82072629166 0.0
0.897316840472 3.87585124602 0.0
0.814484972147 3.79171515708 0.0
0.573290986674 3.7879873938 0.0
1.02164717476 3.69631051635 0.0
0.41798215839 3.87594988344 0.0
1.18469655214 3.6045863568 0.0
0.657426542805 3.87734841349 0.0
0.0893439701605 3.9657484063 0.0
1.51065602984 3.9657484063 0.0
0.850202761783 3.61862953305 0.0
0.185775988195 3.86980628439 0.0
1.41422401181 3.86980628439 0.0
0.305957202498 3.87340573583 0.0
0.629999992124 3.96272981278 0.0
0.686026569054 3.68766751472 0.0
1.03220081924 3.96436031967 0.0
0.445441337222 3.69456289967 0.0
1.33308537187 3.96770341358 0.0
1.0249206042 3.60512275769 0.0
0.128645746764 3.81165411571 0.0
1.47135425324 3.81165411571 0.0
1.29077706219 3.96625078806 0.0
1.21302440104 3.96491551313 0.0
0.373320303365 3.89968789902 0.0
0.409457647309 3.96502881891 0.0
1.39076199588 3.96614348387 0.0
1.2156032112 3.76624353786 0.0
0.383301616321 3.78976397621 0.0
0.593246012246 3.8948346816 0.0
0.833004203108 3.89475034107 0.0
0.187583903859 3.70688411961 0.0
1.41241609614 3.70688411961 0.0
1.08573330585 3.89673930733 0.0
1.04303343403 3.81530385578 0.0
0.103644791029 3.90516202075 0.0
1.49635520897 3.90516202075 0.0
1.23586605501 3.85112068621 0.0
0.921814270996 3.70213058021 0.0
0.532219762185 3.7029333087 0.0
1.28217045716 3.7375098981 0.0
0.779621693208 3.70806977531 0.0
0.998890529268 3.88397615296 0.0
0.659406618131 3.76469373474 0.0
0.230043799244 3.91599372373 0.0
1.53690667654 3.72637971331 0.0
0.0630933234627 3.72637971331 0.0
0.153148105836 3.90639761309 0.0
1.4478092366 3.90500627713 0.0
0.512139854501 3.90538519137 0.0
0.750930702019 3.90340708 0.0
0.0409150717909 3.90046251393 0.0
1.55908492821 3.90046251393 0.0
0.702096631597 3.96656725638 0.0
0.246204062466 3.82734823738 0.0
0.872012730916 3.80079945556 0.0
0.313419524246 3.75328100976 0.0
1.26305184675 3.57725747237 0.0
1.04341944162 3.90846795586 0.0
0.697725469476 3.93030230037 0.0
0.27003033309 3.96477332623 0.0
0.632456188669 3.80120134001 0.0
0.55988813035 3.96676596088 0.0
0.798125231733 3.9668778541 0.0
0.861599835739 3.96514225679 0.0
0.130196681328 3.96566148827 0.0
1.46980331867 3.96566148827 0.0
0.337465698618 3.96873835045 0.0
1.10690030388 3.57445060302 0.0
1.07038768144 3.96631210642 0.0
0.201908835349 3.96783542832 0.0
1.17640357301 3.96795841043 0.0
0.482502283815 3.8454083814 0.0
1.37723451734 3.90442225885 0.0
0.722497886517 3.84543272537 0.0
0.254749007352 3.57960328731 0.0
0.449206209982 3.91785378051 0.0
0.907803563184 3.91575967116 0.0
0.997592319531 3.96832081731 0.0
1.3597087328 3.59165409162 0.0
0.797785363131 3.87112617582 0.0
0.557788209884 3.87112741711 0.0
0.133223775006 3.57024633267 0.0
1.46673023696 3.57019175074 0.0
0.296361477075 3.90524448543 0.0
1.29555045611 3.90092076583 0.0
1.11951450862 3.79592056714 0.0
0.341558640376 3.57546927501 0.0
0.974255514016 3.92370320024 0.0
0.664786082443 3.91707165091 0.0
1.1442561544 3.86460464827 0.0
0.430695849932 3.74774845865 0.0
1.22439218721 3.92431164104 0.0
0.917330800791 3.76752811157 0.0
0.0995806821614 3.83759752714 0.0
1.50041931784 3.83759752714 0.0
0.586492545959 3.6571718064 0.0
1.16809690663 3.90376349956 0.0
0.490525946651 3.9687439861 0.0
0.170108846494 3.77025381333 0.0
0.726723612771 3.96611364881 0.0
1.42998397347 3.77014833166 0.0
1.55978981314 3.82099569701 0.0
0.0402101868575 3.82099569701 0.0
1.10043652243 3.92805072974 0.0
1.34111814411 3.91924529479 0.0
1.27430066613 3.93505265881 0.0
0.56431092584 3.57086686051 0.0
0.930516510487 3.96969091611 0.0
1.17713743504 3.67180033503 0.0
0.801256410508 3.5635758738 0.0
1.37979186382 3.84566323689 0.0
1.02277822921 3.7577258162 0.0
0.252009847995 3.68167957306 0.0
0.0497138210057 3.58866012032 0.0
1.55028617899 3.58866012032 0.0
0.466046622144 3.57331739513 0.0
0.343019074867 3.81481221655 0.0
0.0645235269233 3.96909610548 0.0
1.53547647308 3.96909610548 0.0
0.0310141903995 3.92955737583 0.0
[...]
POINT_DATA 856
VECTORS Displacement float
0.0 0.0 0
0.0 0.0 0
0.000349512789837 0.000666525313805 0
-0.000315758881321 0.00067668345815 0
0.0 0.0 0
0.0 0.0 0
0.0 0.0 0
0.0 0.0 0
0.0 0.0 0
0.0 0.0 0
0.0 0.0 0
0.0 0.0 0
0.0 0.0 0
0.0 0.0 0
0.0 0.0 0
0.0 0.0 0
0.0 0.0 0
0.0 0.0 0
0.0 0.0 0
0.0 0.0 0
0.0 0.0 0
0.0 0.0 0
0.0 0.0 0
0.0 0.0 0
0.0 0.0 0
0.0 0.0 0
0.000857134537409 -0.000472723590682 0
0.00145426944767 -0.000473682793443 0
0.00181518297566 -0.000300472647334 0
0.00191581838249 -6.07645688002e-05 0
0.00185903808822 0.000159857273356 0
0.00169864246785 0.000348282891947 0
0.0014756984853 0.000484992539652 0
0.00124759090552 0.000578149580296 0
0.00102060111297 0.00063383565513 0
0.000814436412523 0.000657062250307 0
0.000635926507389 0.000666087123307 0
0.000482924731052 0.00066711202735 0
0.000350099299124 0.000535232784026 0
0.000350362792221 0.000409570792243 0
0.000345808199356 0.000290977354158 0
0.000333500544103 0.000179082763321 0
0.000310640832008 7.18048103211e-05 0
0.000275081322985 -3.67677889791e-05 0
0.000224679658181 -0.000144224104915 0
0.000159461634699 -0.000262514632531 0
7.60515963733e-05 -0.000388619558165 0
-2.06160592406e-05 -0.000533699200449 0
-0.000137607149721 -0.000692842644487 0
-0.00027079244237 -0.000881395586695 0
-0.000427120167949 -0.00109686430747 0
-0.000599955478686 -0.00134907981513 0
-0.000784803555684 -0.00164004000761 0
-0.000998469555629 -0.00197465035879 0
-0.0012220235672 -0.00235851709064 0
-0.0014576677814 -0.00280563122181 0
-0.00171777425041 -0.00332032469774 0
-0.0020076912926 -0.0039050586394 0
-0.00230008148877 -0.00458424623482 0
-0.00262684164536 -0.00536429445136 0
-0.00294320183903 -0.00626006148223 0
-0.00326551318868 -0.00729576577482 0
-0.00361863245995 -0.00847226543449 0
-0.00395539880417 -0.00983310417341 0
-0.00433095255224 -0.0114364106395 0
-0.00464410900043 -0.0133044924424 0
-0.00496962982946 -0.0156134708409 0
-0.00510975483336 -0.0184451860893 0
-0.00479833092635 -0.0225949682376 0
-0.00431469721841 -0.0265805869596 0
-0.00375456233948 -0.0300580997303 0
-0.00310290180587 -0.0330397890059 0
-0.00251091612903 -0.035563630845 0
-0.00191510795162 -0.0376253095496 0
-0.00138391352753 -0.0392310914621 0
-0.000854336717334 -0.0403777439871 0
-0.000361472059807 -0.0410634535363 0
9.83873867112e-05 -0.0412937678571 0
0.000509314799746 -0.0410711302415 0
0.000979276892748 -0.040383571496 0
0.00146138060561 -0.0392384928523 0
0.00201596610934 -0.0376396896152 0
0.0025782928431 -0.0355734465768 0
0.00317837628111 -0.0330545555721 0
0.00381407450934 -0.030060458219 0
0.00442574171954 -0.0265993952324 0
0.00491934877878 -0.0226258260687 0
0.00518062680135 -0.0184736519992 0
0.00494936364108 -0.0155817725169 0
0.00468027813102 -0.0133168175387 0
0.00436712851383 -0.0114496448037 0
0.00400831343099 -0.00983257179517 0
0.0036695493462 -0.00845534332141 0
0.00329875498396 -0.00726789985903 0
0.00296570404353 -0.00624781026919 0
0.00263540166936 -0.00536329976162 0
0.00233742729845 -0.00458493355646 0
0.00203881451289 -0.00390658036849 0
0.00174882984485 -0.00331929696506 0
0.00149083041958 -0.00280460390583 0
0.00124681571392 -0.00236265912453 0
0.00102208261579 -0.00197398205093 0
0.000812190008127 -0.00164077401 0
0.000628035333827 -0.00134886168377 0
0.000455690468029 -0.00110024545143 0
0.00030655566846 -0.000881508876228 0
0.000171673417923 -0.000693879056454 0
5.31219619397e-05 -0.000532816812281 0
-4.2956302537e-05 -0.000387588634022 0
-0.000125823016343 -0.000261131170405 0
-0.000190839465879 -0.000141158531989 0
-0.000241481965722 -3.24853965459e-05 0
-0.000276942606948 7.69076888223e-05 0
-0.000299752576878 0.000185205571228 0
-0.000312044140582 0.00029812572347 0
-0.0003166015897 0.000417735085543 0
-0.000316343693229 0.000544396506477 0
-0.000450178155913 0.000677268419562 0
-0.000604282280877 0.000676236374407 0
-0.000783978304096 0.000667208644512 0
-0.000991409054129 0.000644006713596 0
-0.00121979849187 0.000588436687364 0
-0.00144958575944 0.000495488052535 0
-0.00167451331207 0.000359054371214 0
-0.00183764929807 0.000170964496567 0
-0.0018980686531 -4.97388965901e-05 0
-0.00180173336991 -0.000290501600681 0
-0.00144471131508 -0.000465828961101 0
-0.00085096654198 -0.000467476766577 0
-0.00250562642482 -0.000848166114406 0
0.00253683034145 -0.000840388364042 0
-0.00403531002505 -0.0060088258368 0
-0.00194388882417 -0.0161386667561 0
0.00370862496996 -0.0128246379808 0
0.00312768471408 -0.00444760260637 0
-0.00133944014247 -6.85608138375e-05 0
0.00136609378145 -7.28428385403e-05 0
-0.00216997662601 -0.0028062682087 0
-0.00369832055815 -0.014935615659 0
0.00125027778001 -0.0244262478032 0
0.00319263822209 -0.0112860411062 0
-0.00131967969221 -0.000861830406932 0
0.00134846944533 -0.000869511937148 0
-0.0017214882934 -0.00642238900436 0
-0.00196561030944 -0.0264243019151 0
0.00268348287842 -0.0217118604643 0
0.0010939192381 -0.00238668683079 0
0.00111195423438 -0.00660966466459 0
-0.00136326455777 -0.0119475704732 0
-0.000144756869176 -0.0323285806542 0
-0.000806192498011 0.000234246702197 0
0.000836422250696 0.000227633877131 0
0.00209852020736 -0.000163047030478 0
-0.00207805886497 -0.000159583702721 0
-0.000564640615584 -0.00199609947023 0
0.00369325374046 -0.00452013967376 0
-0.000731917332842 -0.000380941849842 0
0.000744219039814 -0.000374856059004 0
-0.00180892540665 -0.0209994451656 0
0.00106002046841 -0.0307987501256 0
0.00138565651384 -0.0134815977189 0
-0.00378239898565 -0.00983308833874 0
-0.000277782290623 -0.00408170968989 0
-0.00332462734639 -0.00238772998709 0
0.00126145558472 -0.0163364834297 0
0.0032639841609 -0.00213199207214 0
0.000111808292292 -0.00410064375318 0
0.000410773630862 -0.00135186393745 0
-0.000663091946811 -5.29825714e-05 0
0.000693614495774 -5.59380693694e-05 0
0.00419680869424 -0.00749776553093 0
0.000108342513598 -0.0104430450199 0
-0.000373380885605 -0.0011032849116 0
0.00264046402521 -0.00196096520993 0
-0.000809972944778 -0.0238736586604 0
-0.00355829618688 -0.00947732982251 0
-0.00191000493166 -0.00036273124772 0
0.00190275363155 -0.000363862780369 0
0.00230516656214 -0.00630189001194 0
-0.00310627603394 -0.00345506297374 0
-0.000844894673537 -0.0076823367331 0
0.000336577742684 -0.00768224481082 0
-0.000425252194126 -0.033074773882 0
-0.00189356352664 -0.000420055772226 0
0.00194197677794 -0.000452468676053 0
0.000720807386513 -0.0276109946852 0
-0.0013560479508 0.000224315921696 0
0.00138332019476 0.000217155855881 0
-0.00011002307152 -0.00242744264002 0
-0.00233904561447 -0.00147229401116 0
-0.00266681311925 -0.00108124254926 0
-0.00266007395432 -0.00167905846663 0
0.000259504425071 -0.034906808171 0
-0.000191697863945 -0.0169311415863 0
-0.000204816696297 -0.0279888428657 0
0.000387740343177 -0.000782161872695 0
0.00328717606345 -0.0185447868717 0
-0.00308250851324 -0.00504872762172 0
-0.00300384186324 -0.0192048801058 0
0.000334106564748 -0.00297350818069 0
0.00196024711262 -0.00388362420376 0
-0.000727652780289 -0.00559237882463 0
-0.000210655339546 -0.000708295257482 0
-0.00222991465297 -0.00523295585679 0
0.00369668634241 -0.0158500943764 0
0.00307915676875 -0.0071698922877 0
0.00184632951894 -0.000155623706995 0
-0.00183522756396 -0.000150633185154 0
0.00126217499921 -0.010636000537 0
0.00106392425576 -0.00570288095257 0
4.3273484086e-05 -0.0366596729225 0
0.00184290090971 7.28215559126e-05 0
-0.00181921226224 7.97729232063e-05 0
-0.000316843467216 -0.0227085324108 0
0.000210710062253 -0.00172400748001 0
0.00261067393402 -0.000973134418723 0
-0.00109147975302 -0.00761236217506 0
0.00388037478629 -0.00427401386626 0
-9.26982823656e-07 -0.0329906751798 0
-0.000412544108928 -0.000273275425911 0
0.000398387467577 -0.000292363773146 0
-0.000576377033665 0.000400768208493 0
0.000608188923627 0.000392725538625 0
0.00178274765886 -0.00161861230981 0
0.0020607266387 -0.000890037767818 0
0.00233491107717 -0.0245269381799 0
0.000441670003794 -0.019804588561 0
-0.00417519180421 -0.0107148033513 0
0.00384217725942 -0.00750645151885 0
-0.00185473796943 -0.00426039622027 0
0.00258052599164 -0.00176355240699 0
-0.00297180802426 -0.0211126859268 0
-0.000513716671375 0.00014450919035 0
0.000545802981877 0.00013887270339 0
0.000878544393601 -0.00664829322264 0
-0.00136252012207 -0.000349786500317 0
0.00138787570335 -0.000348578521051 0
-0.00148131409097 -0.00155954190878 0
0.000446829745988 -0.0228922877977 0
-0.00247160196293 -0.0101560577157 0
-0.00125637865569 -0.0140746373736 0
-0.00373767727535 -0.00364717693391 0
-3.77252207485e-05 -0.00110588460716 0
0.00264724704274 -0.00387143807589 0
-0.00179488778188 -0.000102235677188 0
0.00182135055346 -0.000106996707466 0
-0.000261190036719 -0.00169518870335 0
-0.000761418026078 -0.00339180121348 0
-0.00107847298388 -0.00294337101446 0
0.000954393850762 -0.00408670617971 0
0.000254862646996 -0.000550610928845 0
0.00332470553083 -0.00291197445023 0
-0.00309058844829 -0.00299924021118 0
-0.00270262720178 -0.0157678021213 0
0.000770656380378 -0.0293865090788 0
-0.00226810252684 -0.000407545059384 0
0.00228176740265 -0.000404038356921 0
0.00197429752784 -0.00912580359476 0
0.00401319132679 -0.0106324963457 0
-0.00100892174386 7.12428739414e-05 0
0.00103780334871 6.61405521317e-05 0
0.00212562068902 -0.00267944528097 0
0.00271175083994 -0.0108806181539 0
-0.00398603098879 -0.00622840484041 0
0.00297171768973 -0.00159126766898 0
-0.000523127578675 -0.0129759890276 0
0.00309311778718 -0.0161654695422 0
-0.00338159879704 -0.0140484657683 0
-0.00079476657568 -0.000679560106237 0
0.00200390139714 -6.044174276e-05 0
-0.00198601209597 -5.34770731811e-05 0
-0.000973704888224 -0.000165682478788 0
0.00101922775157 -0.000164292205489 0
-0.00159039184788 -0.00901410048018 0
-0.000975191733067 -0.0297355498493 0
-0.00104781833413 0.000370707438651 0
0.0010767625966 0.000362585013357 0
0.000380860442355 -0.0327266534911 0
-0.00193752229401 -0.000827048685569 0
0.00203268453013 -0.0194177780616 0
-0.0028669139257 -0.00157982120554 0
0.00181494913714 -0.000820105253025 0
0.00195135555376 -0.012533681389 0
-0.00120145261888 -0.0289568015981 0
3.93267949655e-05 -0.00114053705383 0
-0.00381309558887 -0.0147736207828 0
0.00153955417256 -0.013218228198 0
6.64936015068e-05 -0.0376462421561 0
-8.72287289674e-05 -0.0355351297084 0
-0.000455948183183 -6.40668545099e-05 0
0.000488192363313 -6.7727657552e-05 0
0.000537036875502 -0.00221222749735 0
0.00213078356456 -0.00195024654696 0
-0.00157124677725 -0.0104592551998 0
-0.000233615699839 -0.000498579882854 0
-0.00113354814459 -0.00459118060923 0
-0.00306270156918 -0.00685924284235 0
0.000985670232496 -0.000614539637222 0
-0.00207080104719 -0.0229791501267 0
-0.0015180466548 -0.000463179239047 0
-0.000716795658711 -0.00555517286322 0
0.00176632789995 -0.0271574338222 0
-0.00115169579333 -0.0186846458252 0
0.00164762009521 -0.000466974251486 0
-2.40413882423e-05 -0.027334066407 0
-0.00309655975238 -0.0120035144389 0
-0.00103735113681 -0.00014416771106 0
0.00104504523485 -0.00014587824511 0
-0.000907740678566 -0.00143098783138 0
0.00101537946862 -0.00154362204901 0
0.0037942762165 -0.0062504950102 0
-0.00179217892604 -0.000832113939358 0
0.00185796187268 -0.0204686309398 0
-0.00194528980769 -0.024585542186 0
0.0024292578168 -0.00573520994512 0
-0.00370069498243 -0.00395421785702 0
0.000465671410551 -0.00301893464843 0
0.00299308455078 -0.0152377189038 0
-0.00157657270832 3.25066055065e-05 0
0.00160218380009 2.73342061009e-05 0
-0.00330169496859 -0.00614106336313 0
0.00115864194828 -0.00482183306559 0
0.0016558315879 -0.00774583107126 0
-0.00211277226629 -0.000312462315738 0
0.000253113190672 -0.03484694461 0
0.00213581403926 -0.00031562329244 0
0.0016610165673 0.000219851613918 0
-0.00163605751944 0.000228166025995 0
0.000541477890657 -0.00824077833651 0
0.000738412614527 -0.000963590426955 0
0.000303564471873 -0.00192733953511 0
-0.00199033310213 -0.00248040353821 0
-0.000682993790936 -0.0291863433075 0
0.00348785972062 -0.00285907568703 0
6.07418169461e-06 -0.00338911009246 0
0.00169689124425 -0.000593460349979 0
0.00418895982264 -0.00983660346692 0
-0.00249174666062 -0.000771228775836 0
-0.00113093493622 -0.000201836002763 0
0.0011380703019 -0.000205917905364 0
-0.00212823236327 -0.00165742637567 0
-0.00254187944612 -0.00217226154391 0
-0.000509644736265 0.00027609104224 0
0.000541867659653 0.000269158565151 0
-0.000814373841991 0.000456185308408 0
0.000844661803567 0.000447560595845 0
-0.00110853937354 -0.00362768680008 0
-0.00142788166826 -0.00204792743715 0
-0.00307026555067 -0.00182365723419 0
-0.00412395265506 -0.00806971479544 0
-0.00098353816122 -0.0189397309248 0
0.00108082216927 -0.00374582033115 0
0.00257529884572 -0.00127757154492 0
-0.00160837154717 -0.000220458872356 0
-0.000760633813964 -0.00248011984869 0
0.00163348540603 -0.000205814601001 0
0.00298798634405 -0.00297759094895 0
0.00337962378047 -0.0191198818717 0
-0.00198729732659 -0.00672529587118 0
0.000214780366316 -0.0241317504011 0
-0.00380731297625 -0.0118731125938 0
2.38093308622e-05 -0.000872065177855 0
-0.000747633639062 9.33313684294e-05 0
0.000778043586498 8.82140594931e-05 0
0.00148315192588 -0.0193724983434 0
0.00108296346433 -0.0272264073784 0
0.00366661298289 -0.00918762345882 0
-0.00101711473091 0.000214205333743 0
0.00104614992532 0.000207714291959 0
-0.00208506491621 -0.000203960513731 0
0.0021000877786 -0.000207438915188 0
-0.000295377892655 -0.0389353403388 0
0.00151953284966 -0.0277515749414 0
0.00103676255911 -0.00340984555159 0
-0.000498950380011 0.000499055161441 0
0.000531332267188 0.000490231918402 0
0.00379796937852 -0.0148291380002 0
-0.00292076770767 -0.0189309942046 0
-0.000348138876637 -0.00142846394089 0
-0.00143717835477 -0.000579300730436 0
0.00407390635805 -0.00560984033222 0
-0.000699914349072 -0.000179377684883 0
0.000970030149468 -0.00378172874507 0
0.000755520130738 -0.000193863128551 0
0.00157928124914 -0.00484398283466 0
0.00245203813724 -0.0217281989229 0
-0.000108192841755 -0.00660035232267 0
-0.00350834824814 -0.0177450562194 0
0.00166635910052 -0.00294553127467 0
-0.00259783935928 -0.00381953952876 0
-0.00102979477317 -0.000483215461931 0
0.00250432579487 -0.000701287419996 0
0.000202505763765 -0.000428253149884 0
-0.00277403483333 -0.00860045437703 0
-0.00128973635318 -0.0262561222667 0
-0.00370945561043 -0.00633606720991 0
0.000133671393045 -0.000949671160461 0
-0.00139249773493 -0.0145670040105 0
0.000266144090898 -0.0328645190841 0
-0.00220661892316 -0.0193174366115 0
-0.000326079355932 -0.00253383281574 0
0.000788537969351 -0.0306017665026 0
-0.00266663088092 -0.0226583341546 0
-0.00126483412732 0.000361338986249 0
0.00129253105188 0.000352878819935 0
0.000595921179199 -0.0130041313643 0
0.00348603493517 -0.00980391720952 0
0.00114485027144 -0.000241204969296 0
-0.00191972645712 -0.00208079645048 0
0.000386247996353 -0.00142087429649 0
-0.00218061356549 -0.000651320027557 0
-0.000867109684189 -0.00092325857338 0
-0.00419416315699 -0.00819190513745 0
-0.00240987374219 -0.00552396642723 0
-0.00171101789287 -0.00110663985824 0
-0.00107717956412 -0.000228294416674 0
0.00211722587473 -0.00669023875002 0
0.00246889285875 -0.0090089802375 0
0.000567438627312 -0.0376925615919 0
0.00214784960091 -0.00720124369835 0
-0.00131191135262 9.1515012094e-05 0
0.00133977727681 8.60675958729e-05 0
0.00188713542556 -0.000139576140143 0
-0.00187365622652 -0.000132696865936 0
0.00223385278265 -0.000663344838904 0
-0.000123398567431 -0.0162534246931 0
-0.00174504822264 -0.0271795780909 0
-0.000306971604115 -0.000174072204566 0
0.000334535903154 -0.000182009093731 0
-0.00302893945281 -0.0016465356965 0
0.000863826279542 -0.00275583869333 0
-0.00129547305678 -0.0325654060016 0
0.000504623043668 -0.000570290636367 0
-0.000331482758385 -0.00930092279652 0
-0.000605948936359 -0.032405404535 0
-0.00233550750238 -0.0090140455083 0
-0.000386115090023 3.17298459737e-05 0
0.000418820251071 2.71846119424e-05 0
0.000417319981618 -0.00546136571391 0
0.00229192632591 -0.00139261595527 0
0.00183144548155 -0.0157341228421 0
0.00318928200219 -0.00658424820807 0
0.00271768762637 -0.00134113213852 0
0.00153147386274 -0.00304575016392 0
-0.00265537799145 -0.0121520433749 0
-0.00315120988832 -0.00279667228838 0
0.00115772369644 -0.00110263241177 0
-6.65706577693e-05 -0.0123147236912 0
-3.81555922844e-05 -0.0349822659783 0
-0.00047416574343 -0.000517865340556 0
-0.00117145455475 -0.0299923133852 0
-0.000440230357942 -0.0014087447147 0
0.00168957221451 -0.00113020909553 0
0.000549955003026 -0.0108441916472 0
0.00234163137354 -0.000518018364524 0
-0.000658723622185 -0.00204213218665 0
-0.00168519017836 -0.0125950680272 0
0.00351642859011 -0.013697929075 0
-0.00396592272864 -0.00509615139338 0
-0.000724130530077 -0.00682269320009 0
-0.00106873624028 -0.00302731071863 0
0.00108884936619 -0.000433759564776 0
-0.00231811051415 -0.000513288248214 0
0.0016752536892 -0.0105000334022 0
-0.00176855340467 -0.00560434214299 0
-0.00174000843527 -0.00699130091118 0
0.00181538100822 0.000165424419294 0
-0.00179220173978 0.000174353912277 0
0.00184850602921 -0.0237025629127 0
0.00285956905769 -0.00899902700593 0
0.00043722541581 -0.00468364677744 0
0.00370522787969 -0.00404983826226 0
-0.00215261691766 -0.000604722280334 0
-4.03220981266e-05 -0.000648849222079 0
-0.00146345135537 -0.000822165036954 0
0.000463336279658 -0.0337511845727 0
-0.000731587026329 -0.0200528290483 0
-0.000878618424384 -0.0245506575172 0
0.000600723295214 -0.00192516143975 0
-0.000981423056312 -0.00455117655332 0
-0.000558368443093 2.98172741208e-05 0
-3.17264159635e-05 -0.00205337212394 0
0.000590072329174 2.53950896539e-05 0
0.00168231188181 -0.00223932367356 0
0.00280606571431 -0.0118953248636 0
0.000224782891488 -0.038641525378 0
0.000933940161985 -0.0192679316498 0
-0.00236178744596 -0.0010734263964 0
-0.00318163290069 -0.00785219143304 0
0.00406228352368 -0.0130669340102 0
0.0025618177462 -0.00460475242208 0
0.00257750197661 -0.00345820509663 0
-0.000899543818841 -0.0120240897515 0
0.000918683123343 -0.0297097327019 0
-0.000230547914923 -0.0033400638267 0
0.000462922154309 -0.00041234934419 0
-0.00306739811493 -0.00224596358678 0
-0.00080817443338 -0.0361350890308 0
-0.002752105333 -0.00111390695809 0
0.00150352183752 -0.000837822801018 0
-0.000474904609513 -0.000828609546922 0
-0.000504029111247 -0.000144930186241 0
0.000540886527437 -0.000176158205628 0
0.00206404161244 -0.016317726518 0
-0.00042381455912 0.000371536960292 0
0.000456713628593 0.000363760273507 0
-0.00202324481482 -0.0217134282897 0
-0.000184435647693 -0.00040939630734 0
-0.00194349272058 -5.62741575002e-05 0
0.00196621765502 -6.12514378654e-05 0
0.00358688506594 -0.00305115309312 0
-0.000831701314299 -0.00909339227154 0
0.000523822115874 -0.00239294396722 0
-5.19668396974e-05 -0.00138314396297 0
0.00119167852208 -0.0215581214623 0
-0.00100726511728 -0.00203340326418 0
0.00233152084475 -0.0150023877423 0
-0.00239899908006 -0.0240756456129 0
-0.00398498149508 -0.013464665446 0
-0.0022796022233 -0.0105669495154 0
-0.000545733494308 -0.0293692692129 0
-0.000654346965438 0.000528086198874 0
0.000685653993447 0.000518997412169 0
-0.0036896072085 -0.00482411077565 0
-0.000175497583787 -0.00298356990922 0
-0.000902140719297 -4.31683023785e-05 0
0.00228830591578 -0.0238574638303 0
0.000933320336779 -4.68222492268e-05 0
4.88003083714e-05 -0.00134659373634 0
0.000773880793369 -0.0315169239137 0
-0.0034212712306 -0.00263509325743 0
-0.00398473237775 -0.0119046481992 0
0.0029733507015 -0.00190256848373 0
-0.00190791005479 -0.0178436313323 0
-0.000645376575685 0.000291975063121 0
0.000676680353655 0.000284870198984 0
0.00305263067331 -0.00210719261644 0
0.00185838932008 -0.000225702309278 0
-0.00185291269209 -0.000223497728373 0
0.000364700023383 -0.00101006693776 0
0.000650683042385 -0.0267222742053 0
-0.00337673783177 -0.0140374544246 0
0.00311035624051 -0.00281721701858 0
0.00350085137116 -0.00534352144788 0
-0.00199000479887 -0.000120357265315 0
0.00200518577448 -0.000125781149843 0
-0.00120141210527 -0.00116247569133 0