# vtk DataFile Version 2.0
Generated with Solid Solver
ASCII
DATASET UNSTRUCTURED_GRID
POINTS 856 float 
0.0 3.5 0.0
1.6 3.5 0.0
1.6 4.0 0.0
0.0 4.0 0.0
0.0695652173912 3.5 0.0
0.139130434782 3.5 0.0
0.208695652174 3.5 0.0
0.278260869565 3.5 0.0
0.347826086956 3.5 0.0
0.417391304347 3.5 0.0
0.486956521738 3.5 0.0
0.556521739129 3.5 0.0
0.62608695652 3.5 0.0
0.695652173911 3.5 0.0
0.765217391302 3.5 0.0
0.834782608694 3.5 0.0
0.904347826085 3.5 0.0
0.973913043477 3.5 0.0
1.04347826087 3.5 0.0
1.11304347826 3.5 0.0
1.18260869565 3.5 0.0
1.25217391304 3.5 0.0
1.32173913043 3.5 0.0
1.39130434783 3.5 0.0
1.46086956522 3.5 0.0
1.53043478261 3.5 0.0
1.6 3.56430812594 0.0
1.6 3.62270835268 0.0
1.6 3.6757434324 0.0
1.6 3.7239062376 0.0
1.6 3.76764438351 0.0
1.6 3.80736436404 0.0
1.6 3.84343531219 0.0
1.6 3.87619247117 0.0
1.6 3.90594026707 0.0
1.6 3.93295517284 0.0
1.6 3.95748825478 0.0
1.6 3.97976750982 0.0
1.58000000587 4.0 0.0
1.55999996633 4.0 0.0
1.54000002214 4.0 0.0
1.51999997198 4.0 0.0
1.50000000455 4.0 0.0
1.48000000216 4.0 0.0
1.45999997931 4.0 0.0
1.44000002484 4.0 0.0
1.41999997044 4.0 0.0
1.40000002096 4.0 0.0
1.37999999963 4.0 0.0
1.35999999626 4.0 0.0
1.34000002179 4.0 0.0
1.31999997343 4.0 0.0
1.3000000318 4.0 0.0
1.27999998783 4.0 0.0
1.26000000202 4.0 0.0
1.24000001295 4.0 0.0
1.21999998074 4.0 0.0
1.20000003685 4.0 0.0
1.17999998163 4.0 0.0
1.16000001473 4.0 0.0
1.14000000469 4.0 0.0
1.11999999139 4.0 0.0
1.10000003625 4.0 0.0
1.07999997877 4.0 0.0
1.06000002802 4.0 0.0
1.04000000338 4.0 0.0
1.02000000764 4.0 0.0
1.00000002986 4.0 0.0
0.979999980237 4.0 0.0
0.960000035522 4.0 0.0
0.939999990881 4.0 0.0
0.920000014619 4.0 0.0
0.900000017903 4.0 0.0
0.879999986222 4.0 0.0
0.860000037278 4.0 0.0
0.839999982352 4.0 0.0
0.820000022783 4.0 0.0
0.800000000002 4.0 0.0
0.779999977222 4.0 0.0
0.760000017652 4.0 0.0
0.739999962726 4.0 0.0
0.720000013782 4.0 0.0
0.699999982101 4.0 0.0
0.679999985385 4.0 0.0
0.660000009123 4.0 0.0
0.639999964482 4.0 0.0
0.620000019766 4.0 0.0
0.599999970141 4.0 0.0
0.57999999236 4.0 0.0
0.559999996622 4.0 0.0
0.539999971983 4.0 0.0
0.520000021235 4.0 0.0
0.499999963756 4.0 0.0
0.480000008612 4.0 0.0
0.459999995315 4.0 0.0
0.439999985272 4.0 0.0
0.420000018371 4.0 0.0
0.39999996315 4.0 0.0
0.380000019261 4.0 0.0
0.359999987052 4.0 0.0
0.339999997986 4.0 0.0
0.320000012172 4.0 0.0
0.299999968206 4.0 0.0
0.280000026575 4.0 0.0
0.259999978213 4.0 0.0
0.240000003742 4.0 0.0
0.220000000371 4.0 0.0
0.199999979041 4.0 0.0
0.180000029557 4.0 0.0
0.159999975162 4.0 0.0
0.140000020694 4.0 0.0
0.119999997846 4.0 0.0
0.0999999954514 4.0 0.0
0.0800000280232 4.0 0.0
0.0599999778571 4.0 0.0
0.0400000336732 4.0 0.0
0.0199999941324 4.0 0.0
0.0 3.97976750982 0.0
0.0 3.95748825478 0.0
0.0 3.93295517284 0.0
0.0 3.90594026707 0.0
0.0 3.87619247117 0.0
0.0 3.84343531219 0.0
0.0 3.80736436404 0.0
0.0 3.76764438351 0.0
0.0 3.7239062376 0.0
0.0 3.6757434324 0.0
0.0 3.62270835268 0.0
0.0 3.56430812594 0.0
0.249757905714 3.75212552678 0.0
1.35000000902 3.74954526597 0.0
0.488714190926 3.75947467509 0.0
0.727445026698 3.75983525744 0.0
0.962900270309 3.76055270856 0.0
1.17161197633 3.81755162829 0.0
0.130754031542 3.86878251069 0.0
1.46924596846 3.86878251069 0.0
0.369913852535 3.84868154079 0.0
0.603236233099 3.84763103091 0.0
0.843402107212 3.84736931152 0.0
1.05041705507 3.86611282467 0.0
0.250539323282 3.87785527135 0.0
1.34882231626 3.87787871523 0.0
0.468661896861 3.89189320321 0.0
0.704258117309 3.89639128976 0.0
0.94963922804 3.89654080835 0.0
1.25000000748 3.89875296068 0.0
1.12879020517 3.91059303421 0.0
0.548928478218 3.91905583534 0.0
0.7889268651 3.91906062813 0.0
0.0712526194949 3.93011432704 0.0
1.52874738051 3.93011432704 0.0
1.4740071133 3.74293106904 0.0
0.125992886699 3.74293106904 0.0
0.329956761073 3.92118145982 0.0
1.09412206522 3.66725831207 0.0
0.190000004299 3.92542384899 0.0
1.41098423528 3.92728100222 0.0
0.629999992124 3.92414139091 0.0
0.87000001175 3.92414140592 0.0
0.853391941071 3.71944243214 0.0
0.610032822379 3.72536074396 0.0
0.41090315692 3.92892991009 0.0
0.370435019193 3.7251305208 0.0
1.01000001875 3.93130199947 0.0
1.22823348571 3.68694249365 0.0
1.18894423177 3.93487447818 0.0
1.31063576122 3.93502724255 0.0
0.129927636183 3.94112156482 0.0
1.47007236382 3.94112156482 0.0
1.07646504896 3.76194504855 0.0
1.07000000339 3.94017719684 0.0
0.270000002394 3.93875928556 0.0
1.26759839792 3.80243333593 0.0
0.770332946246 3.83880063275 0.0
0.530342720064 3.83880306325 0.0
0.189898092614 3.63474333735 0.0
1.4101772205 3.6313147556 0.0
0.942883893479 3.62966700486 0.0
0.510631148905 3.62429064243 0.0
0.754670889573 3.63369080225 0.0
0.489999986184 3.94463854908 0.0
0.732500655853 3.9452729887 0.0
0.193627936713 3.81528931126 0.0
1.40183871842 3.81461096917 0.0
0.928721275957 3.94715071018 0.0
0.0604617896557 3.86281267064 0.0
1.53953821034 3.86281267065 0.0
1.25036152032 3.94913766834 0.0
0.30096552553 3.81141484704 0.0
0.297089357677 3.66359682597 0.0
0.394212311705 3.61316974741 0.0
0.831051681923 3.94633984116 0.0
0.592085081305 3.94901138542 0.0
0.669405291514 3.95495209798 0.0
1.3611855791 3.94637621082 0.0
0.928496698914 3.82436133158 0.0
0.444093171593 3.8271987226 0.0
0.683378885111 3.8234871366 0.0
0.372430737197 3.95235208784 0.0
1.19348789949 3.87019408468 0.0
1.15124363553 3.95467023547 0.0
0.229287653728 3.96038323295 0.0
0.646635519079 3.61231195482 0.0
0.986819459779 3.84973028271 0.0
1.11214815433 3.84770266014 0.0
1.50610225987 3.6604664246 0.0
0.0938977401332 3.6604664246 0.0
0.531976760298 3.96138656711 0.0
0.451361041931 3.96112773652 0.0
0.771976835888 3.96138886125 0.0
1.53311213884 3.79435404356 0.0
0.066887861162 3.79435404356 0.0
0.970836553066 3.9620233382 0.0
0.311702426505 3.96111572975 0.0
1.31698094247 3.6658628839 0.0
1.11177843379 3.95948388532 0.0
1.15003411964 3.72957279566 0.0
0.890058924798 3.96133576813 0.0
0.169108880648 3.96040269401 0.0
1.42850737314 3.96465656678 0.0
0.0426347993992 3.9610175717 0.0
1.5573652006 3.9610175717 0.0
1.28993057938 3.85776473604 0.0
1.34652710411 3.82072629166 0.0
0.897316840472 3.87585124602 0.0
0.814484972147 3.79171515708 0.0
0.573290986674 3.7879873938 0.0
1.02164717476 3.69631051635 0.0
0.41798215839 3.87594988344 0.0
1.18469655214 3.6045863568 0.0
0.657426542805 3.87734841349 0.0
0.0893439701605 3.9657484063 0.0
1.51065602984 3.9657484063 0.0
0.850202761783 3.61862953305 0.0
0.185775988195 3.86980628439 0.0
1.41422401181 3.86980628439 0.0
0.305957202498 3.87340573583 0.0
0.629999992124 3.96272981278 0.0
0.686026569054 3.68766751472 0.0
1.03220081924 3.96436031967 0.0
0.445441337222 3.69456289967 0.0
1.33308537187 3.96770341358 0.0
1.0249206042 3.60512275769 0.0
0.128645746764 3.81165411571 0.0
1.47135425324 3.81165411571 0.0
1.29077706219 3.96625078806 0.0
1.21302440104 3.96491551313 0.0
0.373320303365 3.89968789902 0.0
0.409457647309 3.96502881891 0.0
1.39076199588 3.96614348387 0.0
1.2156032112 3.76624353786 0.0
0.383301616321 3.78976397621 0.0
0.593246012246 3.8948346816 0.0
0.833004203108 3.89475034107 0.0
0.187583903859 3.70688411961 0.0
1.41241609614 3.70688411961 0.0
1.08573330585 3.89673930733 0.0
1.04303343403 3.81530385578 0.0
0.103644791029 3.90516202075 0.0
1.49635520897 3.90516202075 0.0
1.23586605501 3.85112068621 0.0
0.921814270996 3.70213058021 0.0
0.532219762185 3.7029333087 0.0
1.28217045716 3.7375098981 0.0
0.779621693208 3.70806977531 0.0
0.998890529268 3.88397615296 0.0
0.659406618131 3.76469373474 0.0
0.230043799244 3.91599372373 0.0
1.53690667654 3.72637971331 0.0
0.0630933234627 3.72637971331 0.0
0.153148105836 3.90639761309 0.0
1.4478092366 3.90500627713 0.0
0.512139854501 3.90538519137 0.0
0.750930702019 3.90340708 0.0
0.0409150717909 3.90046251393 0.0
1.55908492821 3.90046251393 0.0
0.702096631597 3.96656725638 0.0
0.246204062466 3.82734823738 0.0
0.872012730916 3.80079945556 0.0
0.313419524246 3.75328100976 0.0
1.26305184675 3.57725747237 0.0
1.04341944162 3.90846795586 0.0
0.697725469476 3.93030230037 0.0
0.27003033309 3.96477332623 0.0
0.632456188669 3.80120134001 0.0
0.55988813035 3.96676596088 0.0
0.798125231733 3.9668778541 0.0
0.861599835739 3.96514225679 0.0
0.130196681328 3.96566148827 0.0
1.46980331867 3.96566148827 0.0
0.337465698618 3.96873835045 0.0
1.10690030388 3.57445060302 0.0
1.07038768144 3.96631210642 0.0
0.201908835349 3.96783542832 0.0
1.17640357301 3.96795841043 0.0
0.482502283815 3.8454083814 0.0
1.37723451734 3.90442225885 0.0
0.722497886517 3.84543272537 0.0
0.254749007352 3.57960328731 0.0
0.449206209982 3.91785378051 0.0
0.907803563184 3.91575967116 0.0
0.997592319531 3.96832081731 0.0
1.3597087328 3.59165409162 0.0
0.797785363131 3.87112617582 0.0
0.557788209884 3.87112741711 0.0
0.133223775006 3.57024633267 0.0
1.46673023696 3.57019175074 0.0
0.296361477075 3.90524448543 0.0
1.29555045611 3.90092076583 0.0
1.11951450862 3.79592056714 0.0
0.341558640376 3.57546927501 0.0
0.974255514016 3.92370320024 0.0
0.664786082443 3.91707165091 0.0
1.1442561544 3.86460464827 0.0
0.430695849932 3.74774845865 0.0
1.22439218721 3.92431164104 0.0
0.917330800791 3.76752811157 0.0
0.0995806821614 3.83759752714 0.0
1.50041931784 3.83759752714 0.0
0.586492545959 3.6571718064 0.0
1.16809690663 3.90376349956 0.0
0.490525946651 3.9687439861 0.0
0.170108846494 3.77025381333 0.0
0.726723612771 3.96611364881 0.0
1.42998397347 3.77014833166 0.0
1.55978981314 3.82099569701 0.0
0.0402101868575 3.82099569701 0.0
1.10043652243 3.92805072974 0.0
1.34111814411 3.91924529479 0.0
1.27430066613 3.93505265881 0.0
0.56431092584 3.57086686051 0.0
0.930516510487 3.96969091611 0.0
1.17713743504 3.67180033503 0.0
0.801256410508 3.5635758738 0.0
1.37979186382 3.84566323689 0.0
1.02277822921 3.7577258162 0.0
0.252009847995 3.68167957306 0.0
0.0497138210057 3.58866012032 0.0
1.55028617899 3.58866012032 0.0
0.466046622144 3.57331739513 0.0
0.343019074867 3.81481221655 0.0
0.0645235269233 3.96909610548 0.0
1.53547647308 3.96909610548 0.0
0.0310141903995 3.92955737583 0.0
[...]
POINT_DATA 856
VECTORS Displacement float
0.0 0.0 0
0.0 0.0 0
0.00816433740734 -0.00154098846874 0
-0.0081224584268 -0.00153323321526 0
0.0 0.0 0
0.0 0.0 0
0.0 0.0 0
0.0 0.0 0
0.0 0.0 0
0.0 0.0 0
0.0 0.0 0
0.0 0.0 0
0.0 0.0 0
0.0 0.0 0
0.0 0.0 0
0.0 0.0 0
0.0 0.0 0
0.0 0.0 0
0.0 0.0 0
0.0 0.0 0
0.0 0.0 0
0.0 0.0 0
0.0 0.0 0
0.0 0.0 0
0.0 0.0 0
0.0 0.0 0
0.00633050133358 -0.00462326329406 0
0.0107445197099 -0.0058662518209 0
0.0137146339493 -0.00578632667416 0
0.0150927104111 -0.00506463438408 0
0.0154333939818 -0.00420544860679 0
0.0150584118641 -0.00334240986511 0
0.0141514925418 -0.00265925405867 0
0.0131051274781 -0.00214207540724 0
0.0119394272808 -0.00179743893077 0
0.0108205140569 -0.00163176499321 0
0.00981107326861 -0.00155785377476 0
0.00893153828626 -0.00153908914661 0
0.00816631188886 -0.00229234157396 0
0.00815812954366 -0.00300961377237 0
0.0081147914984 -0.00369791298967 0
0.00801801822058 -0.00436833093849 0
0.0078590999984 -0.00504592566671 0
0.00763473333089 -0.00576572579068 0
0.00732830398011 -0.00653086706078 0
0.00696240063726 -0.00740115874888 0
0.00650715558462 -0.00837720856973 0
0.00601225797582 -0.00951030322422 0
0.00542897880739 -0.0107955346928 0
0.00480279441871 -0.012308169623 0
0.00409058488408 -0.0140564845291 0
0.00335210099315 -0.016110649038 0
0.00263414659018 -0.0184586910504 0
0.00180961816619 -0.021212987631 0
0.00105808344498 -0.024395001421 0
0.000394564487825 -0.0281144455457 0
-0.000224517660263 -0.0324636872143 0
-0.000779456175904 -0.0377341834028 0
-0.000807611895261 -0.0441776719604 0
0.00028039341744 -0.0528447677256 0
0.00161344824489 -0.0615343763848 0
0.00291201091508 -0.0696581388264 0
0.00421172133532 -0.0772769023449 0
0.00523578412789 -0.0844537777116 0
0.00613884201718 -0.0911583119725 0
0.00674810041812 -0.0974318041907 0
0.00718336072295 -0.103242783973 0
0.00736446260896 -0.108598441034 0
0.00736767984826 -0.113479668509 0
0.00715428904922 -0.117885027926 0
0.00674493913637 -0.121807900766 0
0.00618577411914 -0.125228029973 0
0.00547132338655 -0.128138694514 0
0.00461487030451 -0.130537668147 0
0.0036485654379 -0.13241288751 0
0.00259609908838 -0.133761230719 0
0.0014414488277 -0.134569151406 0
0.000190206657016 -0.134799958324 0
-0.00116178499529 -0.134575330544 0
-0.00238828596184 -0.133773696876 0
-0.00348454630167 -0.132431942526 0
-0.00447874673094 -0.130556755052 0
-0.00535448095548 -0.128155938265 0
-0.0060786917785 -0.12524253722 0
-0.00664330691848 -0.121822674474 0
-0.00705199574158 -0.117905772296 0
-0.00729086595471 -0.113498945389 0
-0.00727775403315 -0.108623424707 0
-0.00712395701405 -0.103264062808 0
-0.0066977444364 -0.0974520411425 0
-0.00607778003464 -0.0911821371859 0
-0.00521972428918 -0.0844642448357 0
-0.00419873219859 -0.0772878805128 0
-0.00288244455017 -0.0696787625457 0
-0.00157865811012 -0.0615516541438 0
-0.000210266550422 -0.0528664520215 0
0.000753920479428 -0.0443040658865 0
0.000822565041861 -0.0377456487878 0
0.000279236065299 -0.0325277540349 0
-0.000356610996503 -0.0281384132903 0
-0.00106120707588 -0.0244247652675 0
-0.0018534795527 -0.0212261626576 0
-0.00263140957758 -0.0184899412035 0
-0.00334744955709 -0.0161220730178 0
-0.00409010610319 -0.0140837729597 0
-0.00474806936666 -0.0123303061438 0
-0.00539078155246 -0.0108126849686 0
-0.00597601141288 -0.00952654106896 0
-0.00646697728111 -0.00839360031911 0
-0.00691935988823 -0.00741528373851 0
-0.00728500923944 -0.00654029737578 0
-0.00759246949829 -0.00577201506901 0
-0.00781660040173 -0.00505016576079 0
-0.00797562149211 -0.0043697905332 0
-0.00807262548201 -0.00369685991194 0
-0.00811613891651 -0.00300625149183 0
-0.00812441823232 -0.00228679130943 0
-0.00889192247372 -0.0015313492141 0
-0.00977394814572 -0.0015502247422 0
-0.0107859242705 -0.00162429964543 0
-0.0119072881041 -0.00179004961461 0
-0.0130755711358 -0.00213439115852 0
-0.0141249401245 -0.00265097423792 0
-0.0150350303944 -0.00333319151415 0
-0.0154145809951 -0.00419475421617 0
-0.0150801222435 -0.00505368650208 0
-0.0137081905073 -0.00577753910677 0
-0.0107392857862 -0.00586122213683 0
-0.00632312837078 -0.00461925415971 0
-0.0177055730482 -0.010539854027 0
0.0176721068614 -0.0104017803905 0
-0.0190108001574 -0.0371671895375 0
-0.00571615870704 -0.0604736618202 0
0.0122663123069 -0.0548463131571 0
0.0200650391508 -0.0350673337967 0
-0.0137609492401 -0.00591692218111 0
0.0137863852786 -0.00591796465569 0
-0.0185221092884 -0.0270969043866 0
-0.0143698966966 -0.0716435035631 0
0.00357705654173 -0.0861605582857 0
0.0166786201444 -0.0664180728089 0
-0.0144315588663 -0.0126096788536 0
0.0144723134715 -0.012646571228 0
-0.0173772530351 -0.0520971359727 0
-0.00707873254416 -0.0973206081926 0
0.0106713953346 -0.0911178937853 0
0.0149270876561 -0.0253181319807 0
0.0160790810947 -0.0552012032474 0
-0.0141541655343 -0.0772806136997 0
-0.000751890738724 -0.108572085721 0
-0.0109331418761 -0.0040493943179 0
0.0109666242761 -0.00404931715103 0
0.0159541742744 -0.00521881956858 0
-0.0159341609922 -0.00522399303332 0
-0.0123127097264 -0.0222858462103 0
0.0151661037096 -0.0247252108179 0
-0.0109647241888 -0.00859439024977 0
0.0108910163207 -0.00851265996363 0
-0.0108143569832 -0.0954140023668 0
0.00503721801864 -0.107728357093 0
0.00403110727249 -0.0504013626118 0
-0.013162118338 -0.0442781327484 0
-0.0134453670605 -0.0397200187117 0
-0.0189404229344 -0.019189859087 0
0.0122041470525 -0.0894850518579 0
0.0174767708027 -0.0162731032154 0
0.0127062349136 -0.0399674705856 0
0.0103648435433 -0.0167725239142 0
-0.0102440731659 -0.00595807803303 0
0.0102780212877 -0.00594790226896 0
0.0180809449823 -0.0422595893251 0
0.0129232302162 -0.0766239834125 0
-0.00994536541067 -0.0146623358395 0
0.0190880856287 -0.0196213396509 0
-0.00236617886665 -0.0839924306134 0
-0.0179426704714 -0.0572630946621 0
-0.0123470945616 -0.00462450109102 0
0.0121964370234 -0.00454333479118 0
0.00743961304943 -0.0260789280531 0
-0.0123960030752 -0.0182678986344 0
-0.00256966264805 -0.0292666868448 0
-0.0126814442557 -0.065576177636 0
-0.00447839639076 -0.114392559081 0
-0.0161851202515 -0.00831176313534 0
0.0163113809959 -0.00853688613697 0
0.0081012451316 -0.108325230501 0
-0.0137426875545 -0.00396225919113 0
0.0137717793589 -0.00396367985507 0
0.00924529826035 -0.0258224086303 0
-0.0182630999782 -0.01641026523 0
-0.0155652973261 -0.00979536691747 0
-0.0127806987913 -0.0111171666146 0
0.00221271746002 -0.116715768695 0
-0.0110078790991 -0.0942283398589 0
-0.00785092886268 -0.110287137947 0
0.00933898074387 -0.0118763205116 0
0.0102077306326 -0.0741122167771 0
-0.0199251971332 -0.0389416436858 0
-0.00926495696711 -0.0749748948269 0
-0.00916386408625 -0.0305902040112 0
0.0182743329027 -0.0352831897063 0
0.0108437852408 -0.0531316775421 0
-0.00824564800365 -0.0111959702051 0
-0.00723960023871 -0.0219419277639 0
0.0138463606594 -0.0736998321204 0
0.0190514765027 -0.050392946023 0
0.0131213771384 -0.0038563201699 0
-0.013117972934 -0.00385055119509 0
-0.0107433669804 -0.0813470327619 0
-0.00993264850306 -0.0546381262345 0
-0.00177955651384 -0.121652509992 0
0.0155860831862 -0.00438742156116 0
-0.0155618316876 -0.00438376153301 0
0.00928330398836 -0.105384835654 0
-0.00740478137734 -0.0197248443282 0
0.0155117396971 -0.0091830268591 0
0.010828159108 -0.0672485516174 0
0.0190227084805 -0.028203588184 0
0.00574931938917 -0.117388479418 0
-0.00891632718748 -0.00762345913688 0
0.00867278879619 -0.00774107407372 0
-0.00962028297438 -0.00309781367761 0
0.0096576984934 -0.00310092559591 0
0.0167892303404 -0.018535725955 0
0.0170783537439 -0.0121944407105 0
0.00754036531099 -0.0912413491623 0
0.00121226522477 -0.0707856154578 0
-0.016299780602 -0.0539376185314 0
0.0139608182838 -0.035638184147 0
-0.018070973158 -0.0381702121807 0
0.0118818531327 -0.0111094098771 0
-0.010568325786 -0.0868427443018 0
-0.00927364590261 -0.00461714356818 0
0.00931177089988 -0.00461464555979 0
0.002618626013 -0.0254993065808 0
-0.0140979319736 -0.00821043375335 0
0.0141206216035 -0.00819238100886 0
-0.0157534264091 -0.0183542188194 0
-0.00912928294954 -0.105712310268 0
-0.00770696109878 -0.0404035252728 0
0.0103581449168 -0.091902608343 0
-0.0176823093351 -0.0234435708035 0
0.00712556865369 -0.0144527154411 0
0.00941028340214 -0.0180176098078 0
-0.0155910160044 -0.00572651298865 0
0.0156291907065 -0.00572817107788 0
0.0067994699478 -0.019388922756 0
0.00733105648455 -0.034047801017 0
-0.0154715932901 -0.0298172506795 0
-0.00793433650569 -0.0404552486017 0
0.00809560381699 -0.009834517063 0
0.0199274668375 -0.0239389682503 0
-0.0200128225194 -0.025599730605 0
-0.0136954910073 -0.081345110661 0
0.00257992398833 -0.100642492804 0
-0.0158330079097 -0.00637940370997 0
0.0158200024959 -0.00634357005599 0
0.0164574906011 -0.0643944766202 0
0.0171087167571 -0.0573098127406 0
-0.0120746473126 -0.00504797652927 0
0.012104857511 -0.00504564532021 0
0.0183727554932 -0.0262880817548 0
0.00850357701188 -0.0435705140739 0
-0.0160009556569 -0.0328547132191 0
0.0186450514343 -0.0150952214726 0
-0.00152230678037 -0.0480264113037 0
0.0137660418375 -0.0801512012021 0
-0.0107863469693 -0.0576574374889 0
-0.0116733920197 -0.0111260633124 0
0.0153863382287 -0.0044572572145 0
-0.0153732103676 -0.00445197967153 0
-0.0120530822935 -0.00680614696963 0
0.0121598071699 -0.00676090578549 0
-0.0159390377994 -0.0654202699632 0
-0.00364319453474 -0.102637455892 0
-0.0122182145911 -0.00323365285102 0
0.0122499213704 -0.00323679919133 0
-0.0059262612203 -0.118109636636 0
-0.0167253840116 -0.0117945161219 0
0.00587235149414 -0.0716730660603 0
-0.0188230096865 -0.0154923558172 0
0.00926385351218 -0.00593550404792 0
0.0146058433319 -0.0768383762563 0
-0.00692249972587 -0.106689178456 0
-0.00736153911736 -0.0147689746855 0
-0.0128977878077 -0.0641575894827 0
-0.0101185782298 -0.0903272282065 0
-2.99048431501e-05 -0.12387116941 0
0.00405060144949 -0.121097768679 0
-0.0089992139484 -0.00602284030758 0
0.00903825545773 -0.00601364817769 0
-0.00625861594465 -0.0237286838698 0
0.00849851686331 -0.0103476102942 0
0.0102096756557 -0.0815376577344 0
-0.0080421410526 -0.00941268093753 0
0.00782723206434 -0.0451756391404 0
-0.0191519650908 -0.0488526234015 0
0.0124694370063 -0.0105469512319 0
-0.00618309640329 -0.0839458121155 0
-0.00876668557899 -0.00406392333927 0
-0.0153685079429 -0.0497864407592 0
0.00766024737271 -0.101789455687 0
0.00958949222691 -0.101327779597 0
0.00971293794602 -0.00431960934646 0
-0.000126974288799 -0.0939377286148 0
-0.0160849864177 -0.0690243815199 0
-0.00675593313825 -0.00206700369414 0
0.00676438725499 -0.00206771056903 0
-0.013221791125 -0.0175178098055 0
0.013736389031 -0.0184495811346 0
0.0196069077074 -0.0413238928821 0
-0.00909280900632 -0.0059412978459 0
0.0111186244649 -0.0945438779779 0
-0.00919450771206 -0.0988145143075 0
0.0188686578935 -0.0456230378166 0
-0.0195825207202 -0.0280487713194 0
0.0130078334259 -0.030856353032 0
0.00917599884389 -0.060129069423 0
-0.0147372248616 -0.00499179945589 0
0.01476200585 -0.0049903083594 0
-0.0117853730504 -0.028474884452 0
0.016307445932 -0.0436850310652 0
-0.00937776459237 -0.0694006338134 0
-0.0164859172655 -0.00681195839179 0
-0.00457998636021 -0.120475621316 0
0.0165105150368 -0.00680446511568 0
0.01494825673 -0.00381604873504 0
-0.0149234986075 -0.00381134848637 0
0.014469478742 -0.0659076107696 0
0.0116229997592 -0.0135258360374 0
0.0107095917114 -0.021673917636 0
-0.00713462629285 -0.0116989272413 0
0.0075037808557 -0.114606841479 0
0.0167459830207 -0.0188876479244 0
1.04619800308e-05 -0.0131009070366 0
0.0156199632513 -0.0100812356559 0
0.0157006796457 -0.04797689738 0
-0.0157690167897 -0.00836205388166 0
-0.00802854397016 -0.00302141273417 0
0.00803611815656 -0.00302632668874 0
-0.00888700007393 -0.00921387144488 0
-0.019145733472 -0.0215378390306 0
-0.00923683633315 -0.00381989293093 0
0.00927524139775 -0.00382054865504 0
-0.0109614213768 -0.002784064711 0
0.0109955774604 -0.00278831482226 0
-0.00341235238865 -0.0144496595659 0
-0.0159365048639 -0.0222832424284 0
-0.0163433533252 -0.013926329565 0
-0.0183399580712 -0.0463624217185 0
-0.00280667859094 -0.0683790542682 0
0.00329806673914 -0.0148933422823 0
0.0183633783719 -0.0142430378922 0
-0.0150314863013 -0.00695502495854 0
0.00513668839204 -0.0258824807701 0
0.0150374041768 -0.00680041174985 0
0.0198592656339 -0.0259911141359 0
0.0114168279591 -0.0800337374444 0
0.00725874306306 -0.0636709801476 0
0.000582058746746 -0.0842563566444 0
-0.0165140002067 -0.0636057638713 0
0.00706561602034 -0.0124591267806 0
-0.0106503622777 -0.00493973545369 0
0.0106837030891 -0.0049363338758 0
-0.00918378120019 -0.103290141668 0
-0.00787892354207 -0.112954492365 0
0.018243712855 -0.0555622180552 0
-0.0120772498077 -0.00413592974065 0
0.0121088576411 -0.00413515485664 0
-0.015051627217 -0.00480447254948 0
0.0150586287036 -0.00480266055705 0
0.00201841908549 -0.128589920551 0
0.00508748758711 -0.0979755577772 0
-0.00569760548329 -0.0340597213408 0
-0.00917295861013 -0.00254226043749 0
0.00921172650906 -0.00254707427772 0
0.0126789309591 -0.0639376023523 0
-0.0121677330892 -0.0859193772372 0
0.00559854766216 -0.01701992891 0
-0.0146557945764 -0.0101272494296 0
0.017505215917 -0.0321348041314 0
-0.0105589813579 -0.00692618599185 0
0.0156005428506 -0.0365273219849 0
0.010752771934 -0.00701747728013 0
-0.00615046047461 -0.0476618036029 0
0.00724661640592 -0.0809059836173 0
0.0132012875304 -0.0587772835097 0
-0.0116859766416 -0.0745733601044 0
0.0054623282916 -0.0126781097617 0
-0.0195181847918 -0.0331325252932 0
-0.0126624856211 -0.00945590707412 0
0.0163661373326 -0.00828145314324 0
0.00753696014387 -0.00877033625835 0
-0.0178815325335 -0.0584943601959 0
-0.00394750526646 -0.0922205387503 0
-0.0196789215537 -0.0423582943995 0
-0.00629551202046 -0.0130599286034 0
-0.0130310028891 -0.0847068259954 0
0.00116169463285 -0.110144452115 0
-0.00644658276248 -0.0717495091908 0
-0.011917652618 -0.0268405384196 0
-0.00690057989966 -0.116520340144 0
-0.00850537348606 -0.0864546064625 0
-0.0133005287817 -0.00325251783155 0
0.0133301038737 -0.00325669016282 0
0.0127397315366 -0.0835982988772 0
0.0116376818549 -0.0422378270615 0
0.00700901728606 -0.00249586983947 0
-0.0175651788716 -0.0220060503308 0
-0.00549401646878 -0.0169598057248 0
-0.0171638488067 -0.0098284953997 0
-0.0123806364287 -0.0132364730226 0
-0.0165457215831 -0.0421300984772 0
-0.0189043065662 -0.0444981795824 0
-0.0162138475035 -0.0144164448281 0
-0.0066297772474 -0.00237103966847 0
-0.00686950793554 -0.063843494227 0
-0.00805587993413 -0.0776902857764 0
-0.00310602755716 -0.126457951164 0
0.0177694839386 -0.0548384482963 0
-0.0135691260982 -0.00479568102072 0
0.0136003604181 -0.0047916907353 0
0.0139588697356 -0.00432427076818 0
-0.0139526657355 -0.0043181109762 0
0.017257609185 -0.00986028701334 0
-0.000357047996982 -0.0591219135397 0
0.0077922688087 -0.114456858877 0
-0.00812178402368 -0.00681332428598 0
0.00813453923983 -0.00684453927645 0
-0.0180761479526 -0.0145569356095 0
-0.00527805970029 -0.0283081102319 0
0.00638148716309 -0.120750986019 0
0.00973564906442 -0.0101062836776 0
-0.0136564038976 -0.0711746052806 0
-0.00350754054322 -0.11069894259 0
0.00828874925075 -0.0774529257997 0
-0.00852068116757 -0.00534793564096 0
0.00856068891455 -0.00534213781173 0
0.014527997652 -0.0498999337762 0
0.0181325145782 -0.0159830619163 0
-0.00950356189982 -0.0973000631362 0
0.0109604200323 -0.0292566014208 0
0.0145557619622 -0.010497222351 0
0.0169138073895 -0.0300445812565 0
0.00880407922301 -0.0899914046241 0
-0.0137743644956 -0.0165427885157 0
0.0139011356952 -0.0146959967847 0
-0.0123389769101 -0.082991527259 0
-0.000546629634106 -0.116189836475 0
-0.00962908563118 -0.00968426874421 0
-0.00534704609934 -0.105862306969 0
-0.0108119755938 -0.0172985407146 0
0.0161208027006 -0.0146499269193 0
0.00159252931031 -0.040506950579 0
0.0169676202829 -0.00798386610873 0
0.00476655253886 -0.022101475879 0
-0.00501119824965 -0.047670273278 0
0.0153644339235 -0.0711088855491 0
-0.0174964486277 -0.0299381033446 0
-0.0151929522282 -0.0575818552943 0
0.00425564162336 -0.0305059979947 0
0.0127829855341 -0.00900700000904 0
-0.0169669910113 -0.00801311427222 0
0.00502565807157 -0.0401927324421 0
0.00653988762373 -0.054732675588 0
-0.00540724820436 -0.0276082471553 0
0.0154513945325 -0.00399969549543 0
-0.0154290303022 -0.00399308920912 0
0.00977934119838 -0.0991215945979 0
0.0177508354891 -0.059750321635 0
-0.0113244745908 -0.045425039885 0
0.01985277452 -0.0291282269057 0
-0.0130990030963 -0.00616853800363 0
-0.00694380655714 -0.0105937400253 0
-0.00682867991544 -0.00524963559373 0
0.00376270297175 -0.11494715774 0
-0.0105016459932 -0.098165564209 0
-0.00918606316631 -0.104022201164 0
-0.00507879705095 -0.0211563327658 0
-0.0159095396819 -0.042144922745 0
-0.00957281533588 -0.00537082455307 0
-0.00955272876335 -0.0226754289433 0
0.00960999093175 -0.00536484611949 0
0.0168898742107 -0.0235755204616 0
-0.00852600530149 -0.0894130518706 0
-0.00109067885313 -0.127195490843 0
0.0109370807785 -0.096427849896 0
-0.0179723569507 -0.0130778560101 0
-0.0106691515844 -0.0338796226963 0
0.0150303626571 -0.0622178733955 0
0.0194017607078 -0.0383161773428 0
0.0195101699796 -0.0307367015125 0
0.0110901058482 -0.0850075083637 0
0.00694841697705 -0.109556443225 0
-0.0125167164683 -0.0336606951427 0
0.0092517057868 -0.00874921068401 0
-0.0195906025323 -0.0201396181013 0
0.00462225257274 -0.12483149535 0
-0.0176869193256 -0.0115466766143 0
0.00707102296032 -0.00531771445778 0
-0.0101045498182 -0.0123525493042 0
-0.00936085190968 -0.00664001960592 0
0.00946067021447 -0.00685415752702 0
0.00601839640302 -0.0611963455005 0
-0.00873392953306 -0.00326693925291 0
0.0087739511274 -0.00326947363267 0
0.00859264270969 -0.107784156668 0
-0.00757044274561 -0.00864546482301 0
-0.0159079116968 -0.00501282332165 0
0.0159288684117 -0.00501304167991 0
0.019011324454 -0.0223773807234 0
0.011536238988 -0.073864466493 0
0.0125336863262 -0.0256115779527 0
-0.00844689904456 -0.0169311195437 0
0.00336983274012 -0.0770892520751 0
-0.00320180058755 -0.00849504148257 0
0.0138088130502 -0.0817762536913 0
-0.00897949974399 -0.094053875404 0
-0.0148832761182 -0.0639327543782 0
-0.0160863590564 -0.0686631472975 0
-0.00190873932736 -0.100295192997 0
-0.010063440734 -0.00238216225163 0
0.0100997738593 -0.00238748514753 0
-0.0200519499101 -0.0341151686996 0
0.00986591516098 -0.0306144362389 0
-0.0115688183278 -0.00587483114603 0
-0.0081152241554 -0.111103388543 0
0.0116103827364 -0.00587118074686 0
0.00817334658142 -0.0165842560491 0
0.00334815551814 -0.107631142458 0
-0.0175902559668 -0.0187604314587 0
-0.0138547489285 -0.0536475609382 0
0.0148283034515 -0.013286867397 0
-0.0121512507153 -0.0897426438839 0
-0.0100203651697 -0.00372271153832 0
0.0100564709411 -0.00372375793018 0
0.0194625869459 -0.019191606313 0
0.0126276666877 -0.00396794099674 0
-0.0126578290068 -0.00398174858287 0
0.00958250614525 -0.0138557600512 0
0.00191212467091 -0.0924335241616 0
-0.0150957857337 -0.0729355593066 0
0.0133281658033 -0.0162488556735 0
0.0131594362513 -0.0262833486287 0
-0.0147609049563 -0.00433104490183 0
0.0147691930751 -0.00433496283714 0
-0.0142235458823 -0.0152019128994 0
-0.00542595229137 -0.00688223043843 0
0.00657384659377 -0.011245827065 0
0.0173284044808 -0.0130846563892 0
0.00899503806671 -0.100253351068 0
-0.0134988678343 -0.0069128070976 0
-0.00937777785494 -0.0352724885438 0
0.013514182351 -0.00688818362962 0
0.0183262695296 -0.0210753985573 0
-0.0051357133537 -0.124544813042 0
0.00974743554394 -0.0884048493589 0
0.00673450181797 -0.0063008223294 0
0.00478884744699 -0.0400388068927 0
0.0175584062805 -0.011226329367 0
0.0118387958264 -0.0454129519251 0
0.0198887981617 -0.0419390338673 0
0.0140735798494 -0.0105465570801 0
0.00619565447908 -0.00878657555666 0
-0.017726162147 -0.0317759984821 0
-0.0084302253336 -0.00467899336601 0
0.0193330557436 -0.0363359432537 0
0.00847090067875 -0.00467623593995 0
0.0162654741852 -0.0407667929338 0
-0.0128784181291 -0.0577811779143 0
-0.0123968148692 -0.00793802567983 0