# vtk DataFile Version 2.0
Generated with Solid Solver
ASCII
DATASET UNSTRUCTURED_GRID
POINTS 856 float 
0.0 3.5 0.0
1.6 3.5 0.0
1.6 4.0 0.0
0.0 4.0 0.0
0.0695652173912 3.5 0.0
0.139130434782 3.5 0.0
0.208695652174 3.5 0.0
0.278260869565 3.5 0.0
0.347826086956 3.5 0.0
0.417391304347 3.5 0.0
0.486956521738 3.5 0.0
0.556521739129 3.5 0.0
0.62608695652 3.5 0.0
0.695652173911 3.5 0.0
0.765217391302 3.5 0.0
0.834782608694 3.5 0.0
0.904347826085 3.5 0.0
0.973913043477 3.5 0.0
1.04347826087 3.5 0.0
1.11304347826 3.5 0.0
1.18260869565 3.5 0.0
1.25217391304 3.5 0.0
1.32173913043 3.5 0.0
1.39130434783 3.5 0.0
1.46086956522 3.5 0.0
1.53043478261 3.5 0.0
1.6 3.56430812594 0.0
1.6 3.62270835268 0.0
1.6 3.6757434324 0.0
1.6 3.7239062376 0.0
1.6 3.76764438351 0.0
1.6 3.80736436404 0.0
1.6 3.84343531219 0.0
1.6 3.87619247117 0.0
1.6 3.90594026707 0.0
1.6 3.93295517284 0.0
1.6 3.95748825478 0.0
1.6 3.97976750982 0.0
1.58000000587 4.0 0.0
1.55999996633 4.0 0.0
1.54000002214 4.0 0.0
1.51999997198 4.0 0.0
1.50000000455 4.0 0.0
1.48000000216 4.0 0.0
1.45999997931 4.0 0.0
1.44000002484 4.0 0.0
1.41999997044 4.0 0.0
1.40000002096 4.0 0.0
1.37999999963 4.0 0.0
1.35999999626 4.0 0.0
1.34000002179 4.0 0.0
1.31999997343 4.0 0.0
1.3000000318 4.0 0.0
1.27999998783 4.0 0.0
1.26000000202 4.0 0.0
1.24000001295 4.0 0.0
1.21999998074 4.0 0.0
1.20000003685 4.0 0.0
1.17999998163 4.0 0.0
1.16000001473 4.0 0.0
1.14000000469 4.0 0.0
1.11999999139 4.0 0.0
1.10000003625 4.0 0.0
1.07999997877 4.0 0.0
1.06000002802 4.0 0.0
1.04000000338 4.0 0.0
1.02000000764 4.0 0.0
1.00000002986 4.0 0.0
0.979999980237 4.0 0.0
0.960000035522 4.0 0.0
0.939999990881 4.0 0.0
0.920000014619 4.0 0.0
0.900000017903 4.0 0.0
0.879999986222 4.0 0.0
0.860000037278 4.0 0.0
0.839999982352 4.0 0.0
0.820000022783 4.0 0.0
0.800000000002 4.0 0.0
0.779999977222 4.0 0.0
0.760000017652 4.0 0.0
0.739999962726 4.0 0.0
0.720000013782 4.0 0.0
0.699999982101 4.0 0.0
0.679999985385 4.0 0.0
0.660000009123 4.0 0.0
0.639999964482 4.0 0.0
0.620000019766 4.0 0.0
0.599999970141 4.0 0.0
0.57999999236 4.0 0.0
0.559999996622 4.0 0.0
0.539999971983 4.0 0.0
0.520000021235 4.0 0.0
0.499999963756 4.0 0.0
0.480000008612 4.0 0.0
0.459999995315 4.0 0.0
0.439999985272 4.0 0.0
0.420000018371 4.0 0.0
0.39999996315 4.0 0.0
0.380000019261 4.0 0.0
0.359999987052 4.0 0.0
0.339999997986 4.0 0.0
0.320000012172 4.0 0.0
0.299999968206 4.0 0.0
0.280000026575 4.0 0.0
0.259999978213 4.0 0.0
0.240000003742 4.0 0.0
0.220000000371 4.0 0.0
0.199999979041 4.0 0.0
0.180000029557 4.0 0.0
0.159999975162 4.0 0.0
0.140000020694 4.0 0.0
0.119999997846 4.0 0.0
0.0999999954514 4.0 0.0
0.0800000280232 4.0 0.0
0.0599999778571 4.0 0.0
0.0400000336732 4.0 0.0
0.0199999941324 4.0 0.0
0.0 3.97976750982 0.0
0.0 3.95748825478 0.0
0.0 3.93295517284 0.0
0.0 3.90594026707 0.0
0.0 3.87619247117 0.0
0.0 3.84343531219 0.0
0.0 3.80736436404 0.0
0.0 3.76764438351 0.0
0.0 3.7239062376 0.0
0.0 3.6757434324 0.0
0.0 3.62270835268 0.0
0.0 3.56430812594 0.0
0.249757905714 3.75212552678 0.0
1.35000000902 3.74954526597 0.0
0.488714190926 3.75947467509 0.0
0.727445026698 3.75983525744 0.0
0.962900270309 3.76055270856 0.0
1.17161197633 3.81755162829 0.0
0.130754031542 3.86878251069 0.0
1.46924596846 3.86878251069 0.0
0.369913852535 3.84868154079 0.0
0.603236233099 3.84763103091 0.0
0.843402107212 3.84736931152 0.0
1.05041705507 3.86611282467 0.0
0.250539323282 3.87785527135 0.0
1.34882231626 3.87787871523 0.0
0.468661896861 3.89189320321 0.0
0.704258117309 3.89639128976 0.0
0.94963922804 3.89654080835 0.0
1.25000000748 3.89875296068 0.0
1.12879020517 3.91059303421 0.0
0.548928478218 3.91905583534 0.0
0.7889268651 3.91906062813 0.0
0.0712526194949 3.93011432704 0.0
1.52874738051 3.93011432704 0.0
1.4740071133 3.74293106904 0.0
0.125992886699 3.74293106904 0.0
0.329956761073 3.92118145982 0.0
1.09412206522 3.66725831207 0.0
0.190000004299 3.92542384899 0.0
1.41098423528 3.92728100222 0.0
0.629999992124 3.92414139091 0.0
0.87000001175 3.92414140592 0.0
0.853391941071 3.71944243214 0.0
0.610032822379 3.72536074396 0.0
0.41090315692 3.92892991009 0.0
0.370435019193 3.7251305208 0.0
1.01000001875 3.93130199947 0.0
1.22823348571 3.68694249365 0.0
1.18894423177 3.93487447818 0.0
1.31063576122 3.93502724255 0.0
0.129927636183 3.94112156482 0.0
1.47007236382 3.94112156482 0.0
1.07646504896 3.76194504855 0.0
1.07000000339 3.94017719684 0.0
0.270000002394 3.93875928556 0.0
1.26759839792 3.80243333593 0.0
0.770332946246 3.83880063275 0.0
0.530342720064 3.83880306325 0.0
0.189898092614 3.63474333735 0.0
1.4101772205 3.6313147556 0.0
0.942883893479 3.62966700486 0.0
0.510631148905 3.62429064243 0.0
0.754670889573 3.63369080225 0.0
0.489999986184 3.94463854908 0.0
0.732500655853 3.9452729887 0.0
0.193627936713 3.81528931126 0.0
1.40183871842 3.81461096917 0.0
0.928721275957 3.94715071018 0.0
0.0604617896557 3.86281267064 0.0
1.53953821034 3.86281267065 0.0
1.25036152032 3.94913766834 0.0
0.30096552553 3.81141484704 0.0
0.297089357677 3.66359682597 0.0
0.394212311705 3.61316974741 0.0
0.831051681923 3.94633984116 0.0
0.592085081305 3.94901138542 0.0
0.669405291514 3.95495209798 0.0
1.3611855791 3.94637621082 0.0
0.928496698914 3.82436133158 0.0
0.444093171593 3.8271987226 0.0
0.683378885111 3.8234871366 0.0
0.372430737197 3.95235208784 0.0
1.19348789949 3.87019408468 0.0
1.15124363553 3.95467023547 0.0
0.229287653728 3.96038323295 0.0
0.646635519079 3.61231195482 0.0
0.986819459779 3.84973028271 0.0
1.11214815433 3.84770266014 0.0
1.50610225987 3.6604664246 0.0
0.0938977401332 3.6604664246 0.0
0.531976760298 3.96138656711 0.0
0.451361041931 3.96112773652 0.0
0.771976835888 3.96138886125 0.0
1.53311213884 3.79435404356 0.0
0.066887861162 3.79435404356 0.0
0.970836553066 3.9620233382 0.0
0.311702426505 3.96111572975 0.0
1.31698094247 3.6658628839 0.0
1.11177843379 3.95948388532 0.0
1.15003411964 3.72957279566 0.0
0.890058924798 3.96133576813 0.0
0.169108880648 3.96040269401 0.0
1.42850737314 3.96465656678 0.0
0.0426347993992 3.9610175717 0.0
1.5573652006 3.9610175717 0.0
1.28993057938 3.85776473604 0.0
1.34652710411 3.82072629166 0.0
0.897316840472 3.87585124602 0.0
0.814484972147 3.79171515708 0.0
0.573290986674 3.7879873938 0.0
1.02164717476 3.69631051635 0.0
0.41798215839 3.87594988344 0.0
1.18469655214 3.6045863568 0.0
0.657426542805 3.87734841349 0.0
0.0893439701605 3.9657484063 0.0
1.51065602984 3.9657484063 0.0
0.850202761783 3.61862953305 0.0
0.185775988195 3.86980628439 0.0
1.41422401181 3.86980628439 0.0
0.305957202498 3.87340573583 0.0
0.629999992124 3.96272981278 0.0
0.686026569054 3.68766751472 0.0
1.03220081924 3.96436031967 0.0
0.445441337222 3.69456289967 0.0
1.33308537187 3.96770341358 0.0
1.0249206042 3.60512275769 0.0
0.128645746764 3.81165411571 0.0
1.47135425324 3.81165411571 0.0
1.29077706219 3.96625078806 0.0
1.21302440104 3.96491551313 0.0
0.373320303365 3.89968789902 0.0
0.409457647309 3.96502881891 0.0
1.39076199588 3.96614348387 0.0
1.2156032112 3.76624353786 0.0
0.383301616321 3.78976397621 0.0
0.593246012246 3.8948346816 0.0
0.833004203108 3.89475034107 0.0
0.187583903859 3.70688411961 0.0
1.41241609614 3.70688411961 0.0
1.08573330585 3.89673930733 0.0
1.04303343403 3.81530385578 0.0
0.103644791029 3.90516202075 0.0
1.49635520897 3.90516202075 0.0
1.23586605501 3.85112068621 0.0
0.921814270996 3.70213058021 0.0
0.532219762185 3.7029333087 0.0
1.28217045716 3.7375098981 0.0
0.779621693208 3.70806977531 0.0
0.998890529268 3.88397615296 0.0
0.659406618131 3.76469373474 0.0
0.230043799244 3.91599372373 0.0
1.53690667654 3.72637971331 0.0
0.0630933234627 3.72637971331 0.0
0.153148105836 3.90639761309 0.0
1.4478092366 3.90500627713 0.0
0.512139854501 3.90538519137 0.0
0.750930702019 3.90340708 0.0
0.0409150717909 3.90046251393 0.0
1.55908492821 3.90046251393 0.0
0.702096631597 3.96656725638 0.0
0.246204062466 3.82734823738 0.0
0.872012730916 3.80079945556 0.0
0.313419524246 3.75328100976 0.0
1.26305184675 3.57725747237 0.0
1.04341944162 3.90846795586 0.0
0.697725469476 3.93030230037 0.0
0.27003033309 3.96477332623 0.0
0.632456188669 3.80120134001 0.0
0.55988813035 3.96676596088 0.0
0.798125231733 3.9668778541 0.0
0.861599835739 3.96514225679 0.0
0.130196681328 3.96566148827 0.0
1.46980331867 3.96566148827 0.0
0.337465698618 3.96873835045 0.0
1.10690030388 3.57445060302 0.0
1.07038768144 3.96631210642 0.0
0.201908835349 3.96783542832 0.0
1.17640357301 3.96795841043 0.0
0.482502283815 3.8454083814 0.0
1.37723451734 3.90442225885 0.0
0.722497886517 3.84543272537 0.0
0.254749007352 3.57960328731 0.0
0.449206209982 3.91785378051 0.0
0.907803563184 3.91575967116 0.0
0.997592319531 3.96832081731 0.0
1.3597087328 3.59165409162 0.0
0.797785363131 3.87112617582 0.0
0.557788209884 3.87112741711 0.0
0.133223775006 3.57024633267 0.0
1.46673023696 3.57019175074 0.0
0.296361477075 3.90524448543 0.0
1.29555045611 3.90092076583 0.0
1.11951450862 3.79592056714 0.0
0.341558640376 3.57546927501 0.0
0.974255514016 3.92370320024 0.0
0.664786082443 3.91707165091 0.0
1.1442561544 3.86460464827 0.0
0.430695849932 3.74774845865 0.0
1.22439218721 3.92431164104 0.0
0.917330800791 3.76752811157 0.0
0.0995806821614 3.83759752714 0.0
1.50041931784 3.83759752714 0.0
0.586492545959 3.6571718064 0.0
1.16809690663 3.90376349956 0.0
0.490525946651 3.9687439861 0.0
0.170108846494 3.77025381333 0.0
0.726723612771 3.96611364881 0.0
1.42998397347 3.77014833166 0.0
1.55978981314 3.82099569701 0.0
0.0402101868575 3.82099569701 0.0
1.10043652243 3.92805072974 0.0
1.34111814411 3.91924529479 0.0
1.27430066613 3.93505265881 0.0
0.56431092584 3.57086686051 0.0
0.930516510487 3.96969091611 0.0
1.17713743504 3.67180033503 0.0
0.801256410508 3.5635758738 0.0
1.37979186382 3.84566323689 0.0
1.02277822921 3.7577258162 0.0
0.252009847995 3.68167957306 0.0
0.0497138210057 3.58866012032 0.0
1.55028617899 3.58866012032 0.0
0.466046622144 3.57331739513 0.0
0.343019074867 3.81481221655 0.0
0.0645235269233 3.96909610548 0.0
1.53547647308 3.96909610548 0.0
0.0310141903995 3.92955737583 0.0
[...]
POINT_DATA 856
VECTORS Displacement float
0.0 0.0 0
0.0 0.0 0
0.00156568859963 0.00083113656 0
-0.00152212529144 0.000842720560429 0
0.0 0.0 0
0.0 0.0 0
0.0 0.0 0
0.0 0.0 0
0.0 0.0 0
0.0 0.0 0
0.0 0.0 0
0.0 0.0 0
0.0 0.0 0
0.0 0.0 0
0.0 0.0 0
0.0 0.0 0
0.0 0.0 0
0.0 0.0 0
0.0 0.0 0
0.0 0.0 0
0.0 0.0 0
0.0 0.0 0
0.0 0.0 0
0.0 0.0 0
0.0 0.0 0
0.0 0.0 0
0.0021349965019 -0.00132262139048 0
0.00362109236742 -0.00148332837592 0
0.00455654829058 -0.00120545339191 0
0.00488570118877 -0.000742571458358 0
0.00483885678455 -0.000291582946859 0
0.00454048963578 0.000110034344742 0
0.00407780012175 0.000408546464718 0
0.00358969436283 0.00061840281666 0
0.00308854699388 0.000748235658901 0
0.00262589010646 0.000805092763969 0
0.00222018605371 0.000828360960671 0
0.00187060180783 0.000832288958005 0
0.00156685000167 0.000531514857371 0
0.00156624934923 0.000244915062504 0
0.0015537660165 -2.70505343538e-05 0
0.00152255926816 -0.000286330325062 0
0.00146718524073 -0.00053927400217 0
0.00138388809675 -0.000799437514721 0
0.00126730101645 -0.00106339478902 0
0.00112022333595 -0.00135716543672 0
0.000933757487169 -0.00167599363879 0
0.000721657668774 -0.0020435558293 0
0.000466960192602 -0.00245133663315 0
0.000181530839126 -0.00293235284946 0
-0.000150789896112 -0.00348334480725 0
-0.00051262558559 -0.00412762620739 0
-0.000891900968077 -0.00486687181449 0
-0.00132975484683 -0.00571969327831 0
-0.00177712707232 -0.00669609291304 0
-0.00223734015387 -0.00782882447287 0
-0.00273874179509 -0.0091314227453 0
-0.00329462622518 -0.0106217747984 0
-0.00383094747351 -0.0123475252762 0
-0.00443003875616 -0.0143537815201 0
-0.00496404979215 -0.0166743739077 0
-0.00546969441031 -0.0193816876736 0
-0.00603436564726 -0.0225876097371 0
-0.00646094695255 -0.0261429566516 0
-0.00599287730317 -0.0327396358905 0
-0.00523378923459 -0.0386666859277 0
-0.00435014234259 -0.0440479320148 0
-0.00357887486668 -0.0489694109103 0
-0.00280815142345 -0.0534015188492 0
-0.00215718360366 -0.0573822618629 0
-0.00163021008704 -0.0609103882413 0
-0.00113988780566 -0.0639601745701 0
-0.00076771572826 -0.0665527279318 0
-0.000457447057439 -0.0686803011029 0
-0.000234651630875 -0.0703407563831 0
-4.81247478772e-05 -0.0715322791689 0
7.71019008015e-05 -0.0722486712764 0
0.00014799120781 -0.0724875138307 0
0.000141832250405 -0.0722535197841 0
0.000221918667549 -0.0715395365075 0
0.000359784223372 -0.0703531333191 0
0.000585467836544 -0.0686969797094 0
0.000867718169152 -0.0665663546258 0
0.00124035575191 -0.0639768211648 0
0.00171423080127 -0.0609186305951 0
0.00227054171915 -0.0574048000177 0
0.00288452218614 -0.053420786779 0
0.00366216363103 -0.0489942509004 0
0.00439005598516 -0.0440649330052 0
0.00529380635956 -0.0386906852896 0
0.00608255631246 -0.0327707193524 0
0.00654862250222 -0.0261750074423 0
0.00611719758065 -0.0225694254497 0
0.00550713514026 -0.0193351053476 0
0.0049786405769 -0.0166656331734 0
0.00440621055797 -0.0143577253552 0
0.00388479211245 -0.0123662272504 0
0.0033347136703 -0.0106320473839 0
0.00277752143528 -0.00913811336498 0
0.002279056841 -0.00783374897735 0
0.00180054910266 -0.00671041287079 0
0.00134781867283 -0.0057238436398 0
0.000921115183615 -0.0048748246917 0
0.00054333692114 -0.00413179955917 0
0.000181876772579 -0.00349487200232 0
-0.00013279301813 -0.00293783079629 0
-0.000422918584162 -0.00245768413922 0
-0.000680424059465 -0.00204680871851 0
-0.000891173417721 -0.00167917739874 0
-0.00107648189252 -0.00135969825975 0
-0.00122325380114 -0.00106291681367 0
-0.00134039170671 -0.000796905565932 0
-0.00142354504144 -0.00053547642813 0
-0.001478890281 -0.000280890781065 0
-0.00151012816339 -2.00145414603e-05 0
-0.00152265330808 0.000253496842209 0
-0.00152328159606 0.000541598095269 0
-0.0018285659023 0.000843867641312 0
-0.00217982497743 0.000839904875618 0
-0.00258729816748 0.000816590485751 0
-0.00305177009547 0.000759726332383 0
-0.003554866184 0.00063006469584 0
-0.00404527092564 0.000420571194758 0
-0.00451061597486 0.000122603701313 0
-0.004812762842 -0.000278256460235 0
-0.00486474504521 -0.000729166356438 0
-0.00454143078012 -0.00119354819922 0
-0.00361023170671 -0.00147440844504 0
-0.00212702370501 -0.00131653746168 0
-0.00614807704469 -0.00269981506266 0
0.00618175828148 -0.00266787675588 0
-0.00858185084093 -0.0143895455045 0
-0.00323590516448 -0.0309220732918 0
0.00663117071475 -0.0262795663772 0
0.00755353189423 -0.0116465357238 0
-0.00382770266082 -0.000872263049511 0
0.00386023919177 -0.000875908675889 0
-0.00582453790088 -0.00787883516368 0
-0.0070434025559 -0.0327445185003 0
0.00191815683401 -0.0452226846822 0
0.0072609423532 -0.0272227970446 0
-0.00388824199783 -0.00295091738985 0
0.00392525983603 -0.0029647611775 0
-0.00535899393493 -0.017059885674 0
-0.0031766010218 -0.0502188873696 0
0.00474700836665 -0.0446653554615 0
0.00362012947144 -0.00689615459105 0
0.00428559082681 -0.0176785358576 0
-0.00474453613314 -0.0306820665026 0
-0.000263275759918 -0.0579728594401 0
-0.0026403663743 -0.000164029495428 0
0.00267848757314 -0.000170283487909 0
0.00527784309427 -0.000929649570483 0
-0.00525223677217 -0.000927604573394 0
-0.00244136170954 -0.00589522434797 0
0.00739565108795 -0.0102308933006 0
-0.00252833745255 -0.00169425267791 0
0.00252475452794 -0.00167181586256 0
-0.00384773551624 -0.0455883135784 0
0.00189562908777 -0.0566558484152 0
0.00232720759884 -0.0257994953326 0
-0.00699142769008 -0.0205952072512 0
-0.00221673920066 -0.011260170288 0
-0.00755977385205 -0.0062805315082 0
0.00389056884154 -0.0395832280516 0
0.00723885412313 -0.00548801759537 0
0.00182411330341 -0.0112897344962 0
0.00193492820427 -0.00421237244978 0
-0.00233065762303 -0.000852482836496 0
0.00236905680685 -0.000852598316416 0
0.00859097902125 -0.0173295387857 0
0.00292070012029 -0.0279835520148 0
-0.0018383199904 -0.00356977044243 0
0.00656474645883 -0.00561697704364 0
-0.00125771426386 -0.0441370067026 0
-0.00791824194164 -0.0228565049225 0
-0.00453065291064 -0.00116959329131 0
0.00449606376099 -0.00115936030993 0
0.00414880087878 -0.0126518523506 0
-0.00615142091258 -0.00769597253015 0
-0.00147498244736 -0.0148403864786 0
-0.00174319521495 -0.0207089016474 0
-0.00120689633975 -0.0603688022725 0
-0.005000373336 -0.00172864260273 0
0.00508148949682 -0.00180593928333 0
0.00210522889735 -0.0547027254872 0
-0.00385106507003 -0.000168056394514 0
0.00388529200326 -0.000175212971062 0
0.000962929706438 -0.00697015555814 0
-0.00598642852663 -0.00442293255644 0
-0.00609857470886 -0.00297996247237 0
-0.00566828944935 -0.00407714178414 0
0.000660116518243 -0.062355028285 0
-0.00240377568344 -0.041827156114 0
-0.00158889119617 -0.0556341112212 0
0.00177224514462 -0.00272405022211 0
0.00548679600893 -0.0368565830318 0
-0.00752219130267 -0.013146958295 0
-0.00497924751789 -0.0376797402538 0
-0.000603531584034 -0.00837713731348 0
0.0055474188492 -0.0106307623751 0
0.000314887592673 -0.0151273909582 0
-0.00137363050377 -0.00252727608399 0
-0.0040323459365 -0.0105660944844 0
0.00686999012693 -0.0342408323269 0
0.00751090914408 -0.0182031563227 0
0.00452908954173 -0.000740006792049 0
-0.00451712524623 -0.000733859247034 0
-0.000661724602675 -0.0292008103818 0
0.000394853983681 -0.0154136968157 0
-0.000309064970948 -0.0651260221593 0
0.00483188213291 -0.000453300859377 0
-0.00480220892244 -0.000445876433454 0
0.00129533184125 -0.0504246137716 0
-0.000599595779797 -0.00515055727638 0
0.00600330811855 -0.00272665120365 0
0.000104299628399 -0.0205149449718 0
0.00835561068073 -0.0104482503306 0
0.00110733430315 -0.0613024718208 0
-0.00177345754303 -0.00140484820302 0
0.00170714365923 -0.00144647246308 0
-0.00211698733852 0.000215513505368 0
0.00215758726167 0.000207106237172 0
0.00492372606912 -0.00488805126349 0
0.00537310854378 -0.00295716839183 0
0.00371791198198 -0.0468822173261 0
0.000698304236371 -0.0369773902076 0
-0.00814420985955 -0.0237462780421 0
0.00728096458712 -0.016057587612 0
-0.00539577129362 -0.0116022020793 0
0.00540631978313 -0.00419678759664 0
-0.00506846676506 -0.042838899674 0
-0.00197582649148 -0.000375605395902 0
0.00201687791554 -0.00038031167829 0
0.00152541409671 -0.0128861699649 0
-0.00390762984693 -0.00160052634611 0
0.0039373520187 -0.00159354641913 0
-0.00432717707574 -0.00476274094137 0
-0.00114685827188 -0.0506476962528 0
-0.00433972662778 -0.0200411521745 0
0.000768159828595 -0.0379817129239 0
-0.00792761760877 -0.00880405976646 0
0.000829919259734 -0.00354482256023 0
0.00499192981314 -0.00817541404739 0
-0.00476836421526 -0.000901731231197 0
0.00480373072924 -0.000906356973879 0
0.000432433234307 -0.00506192189025 0
-0.000342015796256 -0.00941216498168 0
-0.00370957087348 -0.00833439200405 0
0.000585675570463 -0.0112064758124 0
0.00141065285741 -0.00211020218366 0
0.00772291677785 -0.00773097245335 0
-0.00741824989188 -0.00807925526158 0
-0.00583440505167 -0.0363727341065 0
0.0012036876815 -0.0533868102491 0
-0.00553357155806 -0.00146817548903 0
0.0055450893672 -0.00145606249375 0
0.00582186380506 -0.0235685543721 0
0.00817931394862 -0.0243822078611 0
-0.00309992858355 -0.000544146774637 0
0.00313591815418 -0.000548271730206 0
0.00572204259561 -0.00756583570639 0
0.00476325669731 -0.0215390733115 0
-0.00790270575422 -0.0139359580193 0
0.00698264505016 -0.00447110456039 0
-0.000879202611845 -0.0247063870053 0
0.00621423128519 -0.0364150790317 0
-0.00590752217529 -0.0282132268037 0
-0.002716183383 -0.00247529632033 0
0.00505931373896 -0.000668270300858 0
-0.00503803770492 -0.000660298848506 0
-0.00304236572622 -0.00113514659669 0
0.00311387747799 -0.00112434400443 0
-0.00524366631359 -0.0235455028282 0
-0.00156777081672 -0.0542698324316 0
-0.0031787324489 0.000151835907738 0
0.0032151527783 0.000143333354754 0
-0.000806913154818 -0.0613703253355 0
-0.00514543215625 -0.0028081869803 0
0.00328471020462 -0.0369087941976 0
-0.0068617139745 -0.00450352326221 0
0.00395166350887 -0.00205491626009 0
0.00543111461771 -0.0313925075085 0
-0.00234904465396 -0.0550588958728 0
-0.000870343815051 -0.00364055293107 0
-0.00682787787705 -0.0305971148069 0
-0.000312846442966 -0.0362783853155 0
6.05214898856e-05 -0.066504749585 0
0.000745716215945 -0.0642017460992 0
-0.00185147597292 -0.000877861746725 0
0.00189289267567 -0.00087920423233 0
6.44433101079e-05 -0.0063894252943 0
0.00422292440242 -0.00434002390402 0
-1.68138080813e-06 -0.0287441776099 0
-0.0013848742442 -0.00197926739009 0
-0.000915334560214 -0.0124839029936 0
-0.00749597435453 -0.0174774049417 0
0.00310133246373 -0.00230041991848 0
-0.00326141171797 -0.0434360635826 0
-0.00345914447344 -0.00125228548872 0
-0.0034093206102 -0.0150419278628 0
0.00306142186752 -0.0521919488055 0
0.000558990755543 -0.0460548598492 0
0.00377939460321 -0.00129072596393 0
-4.09798260346e-05 -0.0497943594346 0
-0.00700361783533 -0.0287557122466 0
-0.00246872603078 -0.00049285017658 0
0.00247929745466 -0.000494843036989 0
-0.00309524544784 -0.00443929646914 0
0.00331651539983 -0.00472845792407 0
0.00841899709859 -0.0153959758099 0
-0.00389617338702 -0.0020751195809 0
0.00400069286942 -0.0448639278388 0
-0.00355009466265 -0.0493889804881 0
0.00651262592015 -0.0151096304997 0
-0.00821891601848 -0.00994031515611 0
0.00237854694406 -0.00851858951938 0
0.00510462426362 -0.0299972608722 0
-0.00432023219463 -0.000597614920087 0
0.0043518576912 -0.000601961530352 0
-0.00621411854512 -0.0129812416339 0
0.0041086170528 -0.0131038919675 0
0.00112178952819 -0.0208592154633 0
-0.00537759617813 -0.00137178693616 0
-0.000682711600638 -0.063544843939 0
0.00540689379945 -0.00137334968273 0
0.00446739380145 -0.000151317456774 0
-0.00443637084816 -0.000142254072462 0
0.00350575855964 -0.0220587134598 0
0.00260777103829 -0.00321218723948 0
0.00180732189793 -0.00570142229739 0
-0.00377392246248 -0.00526459618468 0
0.000789595992431 -0.0578911629362 0
0.00742885783823 -0.00696130498572 0
8.74277751235e-06 -0.00659227151728 0
0.00461315009314 -0.00221747471027 0
0.00802427961415 -0.0213899858165 0
-0.00586566294907 -0.00230279065304 0
-0.00277782750426 -0.000702329827086 0
0.00278678231614 -0.000707392257142 0
-0.00429862852289 -0.00375430447935 0
-0.00644413568639 -0.00619435969868 0
-0.00196475878599 -6.99113295579e-05 0
0.00200600249355 -7.66412391165e-05 0
-0.00265672083924 0.000341575875154 0
0.00269504151825 0.000332323395749 0
-0.00196294528806 -0.00715369767565 0
-0.00428551551435 -0.00601609415404 0
-0.00679527601228 -0.00469156809087 0
-0.00857936070307 -0.0188709145089 0
-0.00158617721628 -0.0355644915143 0
0.0019068935724 -0.00738128601597 0
0.00634263983955 -0.00384662809389 0
-0.00440793068352 -0.00124168753702 0
-0.000576065866498 -0.0070561552427 0
0.00443616960075 -0.00119645829261 0
0.00723351597502 -0.00808050884621 0
0.00579391325885 -0.0390818563597 0
-0.00233808041837 -0.0180114498399 0
0.000325297395905 -0.0444190564828 0
-0.00781613517955 -0.0273225815496 0
0.00092061927547 -0.00293592034217 0
-0.00251351110045 -0.000496071389765 0
0.00255179374087 -0.000500024480066 0
-0.000102622106888 -0.0473806435305 0
-0.000427384214076 -0.0560628433759 0
0.00808711255939 -0.0221270608855 0
-0.00311305961042 -0.000206085777759 0
0.00314951447954 -0.000212088741836 0
-0.00515044884565 -0.000942912012187 0
0.00516741495301 -0.000945797157622 0
0.000215840877872 -0.0688945667198 0
0.00238327507393 -0.0513813326563 0
0.000964598830073 -0.00944268062132 0
-0.00193998007163 0.000438737638498 0
0.00198145739711 0.00042916290352 0
0.0067528912942 -0.0306004851903 0
-0.00546661978786 -0.0407320501261 0
0.000152918430697 -0.00436080634207 0
-0.00409697656229 -0.00220057102009 0
0.00831432164864 -0.0129810121096 0
-0.00242755586506 -0.00117125269955 0
0.00359670288033 -0.0104792507331 0
0.00252519377761 -0.00120236050693 0
0.00187799041929 -0.0131121752499 0
0.00389928387374 -0.0415235005806 0
0.00189423794128 -0.017792743477 0
-0.00607630678415 -0.0362690688542 0
0.00303840403208 -0.00601148062775 0
-0.00668614624971 -0.010332092014 0
-0.00320731075499 -0.00196261651012 0
0.00595861713857 -0.00217828265242 0
0.00125954167424 -0.00178698730184 0
-0.00702030335818 -0.0217633409237 0
-0.00198336332798 -0.0484732618163 0
-0.00833990822421 -0.0157079661544 0
-0.000592820235723 -0.00313363490735 0
-0.00439752236514 -0.0361565505979 0
0.000461863945144 -0.0588454649467 0
-0.00358129007457 -0.0368379059544 0
-0.00201657456528 -0.00727551380672 0
-0.000610656019156 -0.0594549472764 0
-0.00431115042986 -0.0439444715975 0
-0.00365326751832 0.000135131917872 0
0.00368800694575 0.000126064822384 0
0.00354831404048 -0.0338843445082 0
0.00632601578348 -0.0200996542235 0
0.00266273681267 -0.000699093071174 0
-0.00527081651053 -0.00606406119736 0
-9.47867182182e-05 -0.00434502633959 0
-0.00557486852211 -0.00228948641377 0
-0.00291958038005 -0.00311707206367 0
-0.00824529833734 -0.0181994526855 0
-0.00646860634825 -0.0146168766865 0
-0.00473311523519 -0.00356949099967 0
-0.00251231284297 -0.000663661130318 0
0.00262540480022 -0.017935900124 0
0.00252932578179 -0.0243242348141 0
-0.000182599086359 -0.0673773116444 0
0.00610681339588 -0.018835491818 0
-0.00376033131163 -0.000480628946177 0
0.00379557447682 -0.000484981543285 0
0.0046985538502 -0.000772523827172 0
-0.00468344683696 -0.0007643749415 0
0.0056589167457 -0.00231132863844 0
-0.000201595452917 -0.0306574289352 0
-0.000115644771782 -0.0565569051124 0
-0.00150932975966 -0.00114863126827 0
0.00154000626536 -0.0011619151795 0
-0.00699482152047 -0.00449661425315 0
0.000715988981382 -0.00777090893996 0
0.000193387023796 -0.0621470840516 0
0.00200526818699 -0.00217468260625 0
-0.00321790069614 -0.024843796718 0
-0.00118595245306 -0.0587120638248 0
-0.00225628450433 -0.0243214569061 0
-0.00168240729068 -0.000643513556969 0
0.00172447545008 -0.000646401822109 0
0.00275432832146 -0.0148052052529 0
0.00588325986834 -0.00423644943254 0
0.000151971972596 -0.0419233294714 0
0.00590470981227 -0.0136540578721 0
0.00602200509655 -0.00347759119363 0
0.00461234569944 -0.00856290315336 0
-0.00164303313177 -0.0343222229357 0
-0.00647160055536 -0.00651086510356 0
0.00355597275725 -0.00357997945366 0
-0.00286847642931 -0.0327248987254 0
-0.000129076606227 -0.0622335981232 0
-0.00195836060352 -0.00204307975136 0
-0.00204097154857 -0.0554969244557 0
-0.0020512838914 -0.00436927087615 0
0.00467603300491 -0.00363165350169 0
0.000931161062173 -0.0207488551636 0
0.00578622469225 -0.00184581347905 0
-0.000447008507391 -0.00592837579007 0
-0.00286895013288 -0.0242534025184 0
0.00718670313135 -0.031280908907 0
-0.00818362419463 -0.0119039956257 0
-0.00361528382475 -0.018306012447 0
-0.00118735575043 -0.00844253293412 0
0.00330159126678 -0.00182656992826 0
-0.00575873907533 -0.00184408044163 0
0.00288614614375 -0.0203315724001 0
-0.00215287466971 -0.0150697633681 0
-0.00307474373307 -0.013737208003 0
0.00477225765803 -0.000258502386818 0
-0.00474354302735 -0.000248349395223 0
0.00356292291798 -0.0488610004446 0
0.00709944919667 -0.0226064776549 0
-0.000782606864328 -0.0127880570805 0
0.008268660071 -0.0102391181865 0
-0.00499618070447 -0.00175257203906 0
-0.000946256514234 -0.00236008031182 0
-0.00308291078418 -0.00196222741974 0
0.00112902259022 -0.0610040141144 0
-0.00268199903145 -0.0458712752202 0
-0.00244402888525 -0.0511635840469 0
0.000300040611685 -0.0056367853754 0
-0.00376096836784 -0.0124411086035 0
-0.00208309565932 -0.000649416473467 0
-0.00124556008819 -0.00601868816558 0
0.00212355962481 -0.00065212383485 0
0.00480531782831 -0.00648993243178 0
0.0020346166075 -0.033624505961 0
-3.8054784754e-05 -0.0682452252861 0
0.00303454610564 -0.044615993103 0
-0.00596907446266 -0.0033714802864 0
-0.00581131333862 -0.0160858431772 0
0.00766270903246 -0.0283424175818 0
0.0066752428782 -0.0122802341 0
0.00662011157045 -0.00942987462848 0
0.00133105576105 -0.0327163985028 0
0.00209542007276 -0.056522629886 0
-0.00196549914185 -0.00934954502513 0
0.00188007706911 -0.00175954604574 0
-0.00728978833649 -0.00616898443747 0
0.000313224647922 -0.0658243359884 0
-0.00652288114597 -0.00325675343804 0
0.00317690614839 -0.00199358043218 0
-0.00201810235894 -0.00285781933471 0
-0.00197182315566 -0.0010814973128 0
0.00202815873808 -0.0011540845907 0
0.00342084304202 -0.0312789088156 0
-0.00176762309262 0.000148610459837 0
0.00180990712867 0.000140606054431 0
-0.000446513159561 -0.0506581045724 0
-0.0012494363948 -0.00174468565684 0
-0.00503952208545 -0.000738724518237 0
0.00506772368362 -0.000743352359605 0
0.00794451448056 -0.00774921933673 0
0.00105998586019 -0.0246196865614 0
0.00239328486725 -0.00690910980328 0
-0.00114510067305 -0.00428201221381 0
0.00187579843212 -0.0402514033286 0
-0.0018135487538 -0.00409576104844 0
0.00552656031859 -0.0356906630092 0
-0.00402754994737 -0.047441604591 0
-0.00753572810982 -0.0291920970508 0
-0.00617705446803 -0.0267009622788 0
-0.000855162952536 -0.0532650271716 0
-0.00229428839868 0.000504209185734 0
0.00233412974744 0.000494250975677 0
-0.00832303194334 -0.0121485261 0
0.000934401452846 -0.00839724577824 0
-0.00286982347129 -0.000826779212783 0
0.000694814991663 -0.0532764002082 0
0.00291060581784 -0.000828794436723 0
0.00109264339657 -0.00417956339242 0
0.00132644305823 -0.0571141233983 0
-0.0074843615972 -0.00660553540402 0
-0.0073186616894 -0.0250202511808 0
0.00642141774102 -0.00471884835409 0
-0.00446111985407 -0.0410497382577 0
-0.00227488521827 -3.28700167579e-05 0
0.00231468267066 -3.98669555321e-05 0
0.00723490198013 -0.0058188734032 0
0.00448441937106 -0.000866500036788 0
-0.0044847609612 -0.000866504195584 0
0.00176527607119 -0.00332258059746 0
0.000989261745476 -0.0488821633533 0
-0.00696900310484 -0.032131436203 0
0.00633799033292 -0.00649427859498 0
0.00675046749123 -0.0115788737754 0
-0.00496633144308 -0.000749401546855 0
0.00498371333137 -0.000755535416092 0
-0.00368165375674 -0.00373975146905 0
-0.00277379873518 -0.00299360802593 0
0.000812966873591 -0.00257038329253 0
0.00681344180929 -0.00407019132334 0
-0.000898323040812 -0.0438350959882 0
-0.00367585019321 -0.00118651196877 0
-0.000399788469793 -0.00975874418501 0
0.00370538782811 -0.00118162506823 0