# vtk DataFile Version 2.0
Generated with Solid Solver
ASCII
DATASET UNSTRUCTURED_GRID
POINTS 856 float 
0.0 3.5 0.0
1.6 3.5 0.0
1.6 4.0 0.0
0.0 4.0 0.0
0.0695652173912 3.5 0.0
0.139130434782 3.5 0.0
0.208695652174 3.5 0.0
0.278260869565 3.5 0.0
0.347826086956 3.5 0.0
0.417391304347 3.5 0.0
0.486956521738 3.5 0.0
0.556521739129 3.5 0.0
0.62608695652 3.5 0.0
0.695652173911 3.5 0.0
0.765217391302 3.5 0.0
0.834782608694 3.5 0.0
0.904347826085 3.5 0.0
0.973913043477 3.5 0.0
1.04347826087 3.5 0.0
1.11304347826 3.5 0.0
1.18260869565 3.5 0.0
1.25217391304 3.5 0.0
1.32173913043 3.5 0.0
1.39130434783 3.5 0.0
1.46086956522 3.5 0.0
1.53043478261 3.5 0.0
1.6 3.56430812594 0.0
1.6 3.62270835268 0.0
1.6 3.6757434324 0.0
1.6 3.7239062376 0.0
1.6 3.76764438351 0.0
1.6 3.80736436404 0.0
1.6 3.84343531219 0.0
1.6 3.87619247117 0.0
1.6 3.90594026707 0.0
1.6 3.93295517284 0.0
1.6 3.95748825478 0.0
1.6 3.97976750982 0.0
1.58000000587 4.0 0.0
1.55999996633 4.0 0.0
1.54000002214 4.0 0.0
1.51999997198 4.0 0.0
1.50000000455 4.0 0.0
1.48000000216 4.0 0.0
1.45999997931 4.0 0.0
1.44000002484 4.0 0.0
1.41999997044 4.0 0.0
1.40000002096 4.0 0.0
1.37999999963 4.0 0.0
1.35999999626 4.0 0.0
1.34000002179 4.0 0.0
1.31999997343 4.0 0.0
1.3000000318 4.0 0.0
1.27999998783 4.0 0.0
1.26000000202 4.0 0.0
1.24000001295 4.0 0.0
1.21999998074 4.0 0.0
1.20000003685 4.0 0.0
1.17999998163 4.0 0.0
1.16000001473 4.0 0.0
1.14000000469 4.0 0.0
1.11999999139 4.0 0.0
1.10000003625 4.0 0.0
1.07999997877 4.0 0.0
1.06000002802 4.0 0.0
1.04000000338 4.0 0.0
1.02000000764 4.0 0.0
1.00000002986 4.0 0.0
0.979999980237 4.0 0.0
0.960000035522 4.0 0.0
0.939999990881 4.0 0.0
0.920000014619 4.0 0.0
0.900000017903 4.0 0.0
0.879999986222 4.0 0.0
0.860000037278 4.0 0.0
0.839999982352 4.0 0.0
0.820000022783 4.0 0.0
0.800000000002 4.0 0.0
0.779999977222 4.0 0.0
0.760000017652 4.0 0.0
0.739999962726 4.0 0.0
0.720000013782 4.0 0.0
0.699999982101 4.0 0.0
0.679999985385 4.0 0.0
0.660000009123 4.0 0.0
0.639999964482 4.0 0.0
0.620000019766 4.0 0.0
0.599999970141 4.0 0.0
0.57999999236 4.0 0.0
0.559999996622 4.0 0.0
0.539999971983 4.0 0.0
0.520000021235 4.0 0.0
0.499999963756 4.0 0.0
0.480000008612 4.0 0.0
0.459999995315 4.0 0.0
0.439999985272 4.0 0.0
0.420000018371 4.0 0.0
0.39999996315 4.0 0.0
0.380000019261 4.0 0.0
0.359999987052 4.0 0.0
0.339999997986 4.0 0.0
0.320000012172 4.0 0.0
0.299999968206 4.0 0.0
0.280000026575 4.0 0.0
0.259999978213 4.0 0.0
0.240000003742 4.0 0.0
0.220000000371 4.0 0.0
0.199999979041 4.0 0.0
0.180000029557 4.0 0.0
0.159999975162 4.0 0.0
0.140000020694 4.0 0.0
0.119999997846 4.0 0.0
0.0999999954514 4.0 0.0
0.0800000280232 4.0 0.0
0.0599999778571 4.0 0.0
0.0400000336732 4.0 0.0
0.0199999941324 4.0 0.0
0.0 3.97976750982 0.0
0.0 3.95748825478 0.0
0.0 3.93295517284 0.0
0.0 3.90594026707 0.0
0.0 3.87619247117 0.0
0.0 3.84343531219 0.0
0.0 3.80736436404 0.0
0.0 3.76764438351 0.0
0.0 3.7239062376 0.0
0.0 3.6757434324 0.0
0.0 3.62270835268 0.0
0.0 3.56430812594 0.0
0.249757905714 3.75212552678 0.0
1.35000000902 3.74954526597 0.0
0.488714190926 3.75947467509 0.0
0.727445026698 3.75983525744 0.0
0.962900270309 3.76055270856 0.0
1.17161197633 3.81755162829 0.0
0.130754031542 3.86878251069 0.0
1.46924596846 3.86878251069 0.0
0.369913852535 3.84868154079 0.0
0.603236233099 3.84763103091 0.0
0.843402107212 3.84736931152 0.0
1.05041705507 3.86611282467 0.0
0.250539323282 3.87785527135 0.0
1.34882231626 3.87787871523 0.0
0.468661896861 3.89189320321 0.0
0.704258117309 3.89639128976 0.0
0.94963922804 3.89654080835 0.0
1.25000000748 3.89875296068 0.0
1.12879020517 3.91059303421 0.0
0.548928478218 3.91905583534 0.0
0.7889268651 3.91906062813 0.0
0.0712526194949 3.93011432704 0.0
1.52874738051 3.93011432704 0.0
1.4740071133 3.74293106904 0.0
0.125992886699 3.74293106904 0.0
0.329956761073 3.92118145982 0.0
1.09412206522 3.66725831207 0.0
0.190000004299 3.92542384899 0.0
1.41098423528 3.92728100222 0.0
0.629999992124 3.92414139091 0.0
0.87000001175 3.92414140592 0.0
0.853391941071 3.71944243214 0.0
0.610032822379 3.72536074396 0.0
0.41090315692 3.92892991009 0.0
0.370435019193 3.7251305208 0.0
1.01000001875 3.93130199947 0.0
1.22823348571 3.68694249365 0.0
1.18894423177 3.93487447818 0.0
1.31063576122 3.93502724255 0.0
0.129927636183 3.94112156482 0.0
1.47007236382 3.94112156482 0.0
1.07646504896 3.76194504855 0.0
1.07000000339 3.94017719684 0.0
0.270000002394 3.93875928556 0.0
1.26759839792 3.80243333593 0.0
0.770332946246 3.83880063275 0.0
0.530342720064 3.83880306325 0.0
0.189898092614 3.63474333735 0.0
1.4101772205 3.6313147556 0.0
0.942883893479 3.62966700486 0.0
0.510631148905 3.62429064243 0.0
0.754670889573 3.63369080225 0.0
0.489999986184 3.94463854908 0.0
0.732500655853 3.9452729887 0.0
0.193627936713 3.81528931126 0.0
1.40183871842 3.81461096917 0.0
0.928721275957 3.94715071018 0.0
0.0604617896557 3.86281267064 0.0
1.53953821034 3.86281267065 0.0
1.25036152032 3.94913766834 0.0
0.30096552553 3.81141484704 0.0
0.297089357677 3.66359682597 0.0
0.394212311705 3.61316974741 0.0
0.831051681923 3.94633984116 0.0
0.592085081305 3.94901138542 0.0
0.669405291514 3.95495209798 0.0
1.3611855791 3.94637621082 0.0
0.928496698914 3.82436133158 0.0
0.444093171593 3.8271987226 0.0
0.683378885111 3.8234871366 0.0
0.372430737197 3.95235208784 0.0
1.19348789949 3.87019408468 0.0
1.15124363553 3.95467023547 0.0
0.229287653728 3.96038323295 0.0
0.646635519079 3.61231195482 0.0
0.986819459779 3.84973028271 0.0
1.11214815433 3.84770266014 0.0
1.50610225987 3.6604664246 0.0
0.0938977401332 3.6604664246 0.0
0.531976760298 3.96138656711 0.0
0.451361041931 3.96112773652 0.0
0.771976835888 3.96138886125 0.0
1.53311213884 3.79435404356 0.0
0.066887861162 3.79435404356 0.0
0.970836553066 3.9620233382 0.0
0.311702426505 3.96111572975 0.0
1.31698094247 3.6658628839 0.0
1.11177843379 3.95948388532 0.0
1.15003411964 3.72957279566 0.0
0.890058924798 3.96133576813 0.0
0.169108880648 3.96040269401 0.0
1.42850737314 3.96465656678 0.0
0.0426347993992 3.9610175717 0.0
1.5573652006 3.9610175717 0.0
1.28993057938 3.85776473604 0.0
1.34652710411 3.82072629166 0.0
0.897316840472 3.87585124602 0.0
0.814484972147 3.79171515708 0.0
0.573290986674 3.7879873938 0.0
1.02164717476 3.69631051635 0.0
0.41798215839 3.87594988344 0.0
1.18469655214 3.6045863568 0.0
0.657426542805 3.87734841349 0.0
0.0893439701605 3.9657484063 0.0
1.51065602984 3.9657484063 0.0
0.850202761783 3.61862953305 0.0
0.185775988195 3.86980628439 0.0
1.41422401181 3.86980628439 0.0
0.305957202498 3.87340573583 0.0
0.629999992124 3.96272981278 0.0
0.686026569054 3.68766751472 0.0
1.03220081924 3.96436031967 0.0
0.445441337222 3.69456289967 0.0
1.33308537187 3.96770341358 0.0
1.0249206042 3.60512275769 0.0
0.128645746764 3.81165411571 0.0
1.47135425324 3.81165411571 0.0
1.29077706219 3.96625078806 0.0
1.21302440104 3.96491551313 0.0
0.373320303365 3.89968789902 0.0
0.409457647309 3.96502881891 0.0
1.39076199588 3.96614348387 0.0
1.2156032112 3.76624353786 0.0
0.383301616321 3.78976397621 0.0
0.593246012246 3.8948346816 0.0
0.833004203108 3.89475034107 0.0
0.187583903859 3.70688411961 0.0
1.41241609614 3.70688411961 0.0
1.08573330585 3.89673930733 0.0
1.04303343403 3.81530385578 0.0
0.103644791029 3.90516202075 0.0
1.49635520897 3.90516202075 0.0
1.23586605501 3.85112068621 0.0
0.921814270996 3.70213058021 0.0
0.532219762185 3.7029333087 0.0
1.28217045716 3.7375098981 0.0
0.779621693208 3.70806977531 0.0
0.998890529268 3.88397615296 0.0
0.659406618131 3.76469373474 0.0
0.230043799244 3.91599372373 0.0
1.53690667654 3.72637971331 0.0
0.0630933234627 3.72637971331 0.0
0.153148105836 3.90639761309 0.0
1.4478092366 3.90500627713 0.0
0.512139854501 3.90538519137 0.0
0.750930702019 3.90340708 0.0
0.0409150717909 3.90046251393 0.0
1.55908492821 3.90046251393 0.0
0.702096631597 3.96656725638 0.0
0.246204062466 3.82734823738 0.0
0.872012730916 3.80079945556 0.0
0.313419524246 3.75328100976 0.0
1.26305184675 3.57725747237 0.0
1.04341944162 3.90846795586 0.0
0.697725469476 3.93030230037 0.0
0.27003033309 3.96477332623 0.0
0.632456188669 3.80120134001 0.0
0.55988813035 3.96676596088 0.0
0.798125231733 3.9668778541 0.0
0.861599835739 3.96514225679 0.0
0.130196681328 3.96566148827 0.0
1.46980331867 3.96566148827 0.0
0.337465698618 3.96873835045 0.0
1.10690030388 3.57445060302 0.0
1.07038768144 3.96631210642 0.0
0.201908835349 3.96783542832 0.0
1.17640357301 3.96795841043 0.0
0.482502283815 3.8454083814 0.0
1.37723451734 3.90442225885 0.0
0.722497886517 3.84543272537 0.0
0.254749007352 3.57960328731 0.0
0.449206209982 3.91785378051 0.0
0.907803563184 3.91575967116 0.0
0.997592319531 3.96832081731 0.0
1.3597087328 3.59165409162 0.0
0.797785363131 3.87112617582 0.0
0.557788209884 3.87112741711 0.0
0.133223775006 3.57024633267 0.0
1.46673023696 3.57019175074 0.0
0.296361477075 3.90524448543 0.0
1.29555045611 3.90092076583 0.0
1.11951450862 3.79592056714 0.0
0.341558640376 3.57546927501 0.0
0.974255514016 3.92370320024 0.0
0.664786082443 3.91707165091 0.0
1.1442561544 3.86460464827 0.0
0.430695849932 3.74774845865 0.0
1.22439218721 3.92431164104 0.0
0.917330800791 3.76752811157 0.0
0.0995806821614 3.83759752714 0.0
1.50041931784 3.83759752714 0.0
0.586492545959 3.6571718064 0.0
1.16809690663 3.90376349956 0.0
0.490525946651 3.9687439861 0.0
0.170108846494 3.77025381333 0.0
0.726723612771 3.96611364881 0.0
1.42998397347 3.77014833166 0.0
1.55978981314 3.82099569701 0.0
0.0402101868575 3.82099569701 0.0
1.10043652243 3.92805072974 0.0
1.34111814411 3.91924529479 0.0
1.27430066613 3.93505265881 0.0
0.56431092584 3.57086686051 0.0
0.930516510487 3.96969091611 0.0
1.17713743504 3.67180033503 0.0
0.801256410508 3.5635758738 0.0
1.37979186382 3.84566323689 0.0
1.02277822921 3.7577258162 0.0
0.252009847995 3.68167957306 0.0
0.0497138210057 3.58866012032 0.0
1.55028617899 3.58866012032 0.0
0.466046622144 3.57331739513 0.0
0.343019074867 3.81481221655 0.0
0.0645235269233 3.96909610548 0.0
1.53547647308 3.96909610548 0.0
0.0310141903995 3.92955737583 0.0
[...]
POINT_DATA 856
VECTORS Displacement float
0.0 0.0 0
0.0 0.0 0
0.00402794535113 0.000233336999501 0
-0.0039788493216 0.000245923465599 0
0.0 0.0 0
0.0 0.0 0
0.0 0.0 0
0.0 0.0 0
0.0 0.0 0
0.0 0.0 0
0.0 0.0 0
0.0 0.0 0
0.0 0.0 0
0.0 0.0 0
0.0 0.0 0
0.0 0.0 0
0.0 0.0 0
0.0 0.0 0
0.0 0.0 0
0.0 0.0 0
0.0 0.0 0
0.0 0.0 0
0.0 0.0 0
0.0 0.0 0
0.0 0.0 0
0.0 0.0 0
0.00395793161001 -0.00268143518469 0
0.00671365913759 -0.00322988725854 0
0.0085095248583 -0.00295767376945 0
0.00924819508383 -0.00231172172116 0
0.00931496882827 -0.00163123069658 0
0.00892527850478 -0.000993257594308 0
0.00821658823359 -0.000505580861188 0
0.00744023013988 -0.000150838339401 0
0.00661388143732 7.65334215511e-05 0
0.00583730067296 0.000180814228 0
0.00514721891602 0.000225438525567 0
0.00454942071123 0.000234983480674 0
0.00402962400675 -0.000278285118011 0
0.00402646690424 -0.000767267484857 0
0.00400135650911 -0.00123379200792 0
0.00394229115619 -0.0016831573382 0
0.00384158669159 -0.00212908772755 0
0.00369480550583 -0.00259498234984 0
0.00349183769651 -0.00307868607555 0
0.00324236854733 -0.00362271593859 0
0.00292889986896 -0.00422282137736 0
0.00257957144932 -0.00491664004083 0
0.00216360722627 -0.00569458442129 0
0.0017059328948 -0.00661019532698 0
0.00117812965906 -0.00766265186664 0
0.000614378512016 -0.00889449747636 0
3.94646115405e-05 -0.0103035817448 0
-0.000623606075585 -0.0119383229053 0
-0.00127711389935 -0.0138122619798 0
-0.00192235435331 -0.0159858572087 0
-0.00260699137939 -0.0184929215028 0
-0.00335613146753 -0.0214028935801 0
-0.0040052473409 -0.0247731906751 0
-0.00474004569197 -0.0287836751057 0
-0.00526462900724 -0.0332086901127 0
-0.00455132304775 -0.0415180615711 0
-0.00339873553697 -0.0489766516984 0
-0.00230440259726 -0.0559332344825 0
-0.00118419549628 -0.0623635393809 0
-0.000280634960683 -0.0683592785258 0
0.000529599579353 -0.073879135344 0
0.00112734915767 -0.0789581692283 0
0.00161317229781 -0.083566812125 0
0.00192372705497 -0.0877185578529 0
0.0020666734936 -0.0914103864195 0
0.00210980074471 -0.094616310742 0
0.00201334721761 -0.0973445384936 0
0.00181202410538 -0.099588918384 0
0.00151087957457 -0.101342362909 0
0.00114732168042 -0.102602770527 0
0.000701935158386 -0.103360587144 0
0.000181947365319 -0.103601004751 0
-0.000434159380325 -0.103366140583 0
-0.000941423257897 -0.102613143293 0
-0.00135277754539 -0.101359014169 0
-0.00166797541568 -0.0996079393494 0
-0.00189322452302 -0.0973613230413 0
-0.00199529931112 -0.0946337238962 0
-0.00196345092189 -0.0914238909035 0
-0.00180786800026 -0.0877424995656 0
-0.00153047476759 -0.0835878211036 0
-0.00103443963756 -0.0789851619454 0
-0.000460243650103 -0.0739028224084 0
0.000347914003564 -0.0683840234212 0
0.00126347496634 -0.062393230336 0
0.00234494718889 -0.0559518936462 0
0.003449076648 -0.049000682476 0
0.00462153958023 -0.0415502710048 0
0.00533127479479 -0.0332377794945 0
0.0046471626669 -0.0287499268023 0
0.00409132442251 -0.0248284988869 0
0.00341326079803 -0.0214148015555 0
0.00265653319257 -0.0185098622224 0
0.00197146598238 -0.0159971504045 0
0.00129506948042 -0.0138354911956 0
0.000625305007064 -0.0119461614432 0
-1.41643536261e-05 -0.0103200336708 0
-0.000587324681335 -0.0089016885259 0
-0.00115219411004 -0.00768148002253 0
-0.00164731858454 -0.00662156991215 0
-0.00211465184249 -0.00570528548097 0
-0.00253403124545 -0.00492425334856 0
-0.00288099891037 -0.0042305321192 0
-0.00319257663414 -0.00362922074369 0
-0.00344174183449 -0.00308104296894 0
-0.00364557726859 -0.00259456504996 0
-0.00379218392511 -0.00212695663564 0
-0.00389291629939 -0.00167874233162 0
-0.00395209596164 -0.0012272189206 0
-0.0039773053145 -0.000758643652713 0
-0.00398051901071 -0.000267684622725 0
-0.00450235316875 0.000247560570894 0
-0.00510238288706 0.000237947111527 0
-0.00579479333842 0.000193220729129 0
-0.0065737128487 8.88921517467e-05 0
-0.00740255465853 -0.00013826515753 0
-0.00818183898004 -0.000492544804788 0
-0.00889380686209 -0.000979511262227 0
-0.00928816679406 -0.00161644050587 0
-0.00922770399179 -0.00229690092769 0
-0.00849580372703 -0.00294497108084 0
-0.00670355783933 -0.00322102734021 0
-0.00394911150155 -0.0026752287134 0
-0.0112305467578 -0.00587766698481 0
0.0112448851419 -0.00580388900874 0
-0.0136491247963 -0.0251212282355 0
-0.00444534914685 -0.0457939653237 0
0.00940962245451 -0.0405278166132 0
0.0133454116864 -0.0220931886218 0
-0.00786912311002 -0.00271048014054 0
0.00790330633135 -0.00271428857839 0
-0.0113168847066 -0.0159498502512 0
-0.0104669416987 -0.0521245249183 0
0.00267270032841 -0.0658155825928 0
0.0116997304403 -0.0464402721503 0
-0.00815034780199 -0.00673626805846 0
0.00819347508055 -0.00676080433238 0
-0.010850482455 -0.0329351865806 0
-0.00486810472586 -0.0738742396177 0
0.0073376013901 -0.0679846687613 0
0.00812794155467 -0.01436293225 0
0.00960303473822 -0.0346064925342 0
-0.00887622792783 -0.0537760679345 0
-0.000468868367927 -0.0833439720761 0
-0.00588985061955 -0.00147039023486 0
0.00593157773723 -0.00147594219737 0
0.00987667759575 -0.00253873422784 0
-0.00984996520554 -0.00253860410965 0
-0.00617243164717 -0.0124537101193 0
0.0112621312155 -0.0171511212224 0
-0.00579924745688 -0.00430895871556 0
0.00576889445838 -0.00426295400595 0
-0.00680147320133 -0.0706115620589 0
0.00325357060613 -0.0822688453941 0
0.00318017152479 -0.0381883943869 0
-0.0100717871664 -0.0323222611595 0
-0.0065282664956 -0.0229057468793 0
-0.0128569828195 -0.0119600367087 0
0.00739887789537 -0.0646177204734 0
0.0120630569247 -0.0102764566999 0
0.0059070482642 -0.022959073145 0
0.00506663537275 -0.00918127204698 0
-0.00538944854246 -0.00270468842907 0
0.00543156228365 -0.00270174574499 0
0.0132501207111 -0.0293039789759 0
0.00720448290803 -0.0519925128794 0
-0.00484732225512 -0.00793186618035 0
0.012090813481 -0.0114791629493 0
-0.00176024284566 -0.0641916925441 0
-0.0127317877572 -0.0394827210725 0
-0.00803830043409 -0.00256350977206 0
0.00795744548652 -0.00252752448746 0
0.00583797274457 -0.0193462005275 0
-0.0092804010137 -0.0127605108738 0
-0.00203633204808 -0.0220990859107 0
-0.00650035662478 -0.0415458682573 0
-0.00260984049802 -0.0874311991694 0
-0.00970936214227 -0.00426107266366 0
0.00982054581301 -0.00440454315793 0
0.00465947325104 -0.081602407114 0
-0.00788371021245 -0.0014455380757 0
0.00792071825427 -0.00145227582978 0
0.0038117812991 -0.0145057483446 0
-0.0112977487774 -0.00933547891717 0
-0.0104597415781 -0.00589301628716 0
-0.00910687387975 -0.0072865235141 0
0.0013386244759 -0.0895738951535 0
-0.0059421074224 -0.0681704489094 0
-0.00425180688064 -0.0830445855236 0
0.00459047563974 -0.00628467461345 0
0.00770049928415 -0.0555573452155 0
-0.0133011477056 -0.0247718368768 0
-0.00698049085627 -0.0564134545001 0
-0.00345135102602 -0.017245424224 0
0.0111033165382 -0.0211617159501 0
0.00420174225602 -0.0307534962542 0
-0.00388394080644 -0.00588962902175 0
-0.00568297273663 -0.0162268845564 0
0.0101198886696 -0.0539383783343 0
0.012994671948 -0.0332496906613 0
0.0082917365212 -0.00192140234915 0
-0.00828165098552 -0.00191423638388 0
-0.00468705302576 -0.0552643707929 0
-0.00328770118252 -0.031455649238 0
-0.000941983796901 -0.0934035803909 0
0.00935705813498 -0.00183844273392 0
-0.00932548006458 -0.00183079070771 0
0.00464921707707 -0.0780275599509 0
-0.002900534251 -0.0109528670751 0
0.0103609028353 -0.00546276718233 0
0.00459200060678 -0.0421040406092 0
0.013499787429 -0.0186457038786 0
0.00311823931941 -0.0893874977741 0
-0.00446100624689 -0.00373674645165 0
0.00431979479608 -0.00381227947304 0
-0.00499637475889 -0.000822310885634 0
0.00504150847295 -0.000830707089211 0
0.00987593841328 -0.0104116858656 0
0.0103418611602 -0.00662938820526 0
0.00541505453291 -0.0691728789942 0
0.000946147532363 -0.0540106365251 0
-0.0121351170515 -0.0385827143393 0
0.010638943621 -0.0256632747223 0
-0.0109325153772 -0.0230182034553 0
0.00856420141135 -0.00737937348573 0
-0.00751086601532 -0.0649318142231 0
-0.0047579219932 -0.00184374315004 0
0.00480369542948 -0.00184721481823 0
0.00209254434093 -0.0192302429154 0
-0.00805196788177 -0.00410561213014 0
0.00808240326437 -0.00409380607018 0
-0.0089996128774 -0.0102239474238 0
-0.00449305154763 -0.0783017985384 0
-0.00604296324405 -0.0302460846097 0
0.004609805445 -0.0651203554341 0
-0.01265854046 -0.0155757970212 0
0.00302821149696 -0.0078421980241 0
0.00724838707848 -0.0129947048952 0
-0.00930500379287 -0.00267723528629 0
0.0093461587442 -0.00268206212122 0
0.00255467375391 -0.0107678742161 0
0.00194975572974 -0.0192184553621 0
-0.00844129270986 -0.0171294303331 0
-0.00188861799395 -0.0227625754952 0
0.00386689626859 -0.00508012648844 0
0.0133603172491 -0.0148418060844 0
-0.0131642191429 -0.0157057205658 0
-0.00932304046159 -0.0588501018803 0
0.00180923822473 -0.0771123102012 0
-0.010067253378 -0.00340633761495 0
0.0100702864567 -0.00338374991687 0
0.0107536738739 -0.0431464472793 0
0.0125048966315 -0.040491387785 0
-0.0066708015514 -0.00213431111423 0
0.00670961130035 -0.00213737613033 0
0.0111754460537 -0.0153952553486 0
0.00664864206656 -0.0325728247907 0
-0.0119297087563 -0.0230646653991 0
0.0122704665675 -0.00897730078312 0
-0.0011996069424 -0.0364591015216 0
0.0096156059416 -0.058275108804 0
-0.00829765038239 -0.0429494512343 0
-0.00619811452631 -0.0058230450696 0
0.0094978799835 -0.00205212547037 0
-0.00947700812863 -0.00204358163853 0
-0.00661233815279 -0.00323240513392 0
0.00670783206771 -0.00320849522112 0
-0.0101720159443 -0.0436284500981 0
-0.00246261870494 -0.0785453321803 0
-0.00678793968913 -0.000923049442013 0
0.00682765380135 -0.000931500811934 0
-0.00301451496543 -0.0897821359824 0
-0.0100245781944 -0.00636269288003 0
0.00451538283375 -0.0544033053431 0
-0.012236116031 -0.00913462472144 0
0.00648235171804 -0.00378253753581 0
0.0095305598532 -0.0539263117167 0
-0.00430108605957 -0.0809584114064 0
-0.00314255027634 -0.00802844803958 0
-0.00975005650988 -0.0473502334517 0
-0.00420492786709 -0.0635012768027 0
2.86689544884e-05 -0.0951922003757 0
0.00219054744222 -0.0926698505806 0
-0.00455791159928 -0.00274827865403 0
0.0046043584459 -0.00274675673921 0
-0.00191536743446 -0.0133227175831 0
0.00637304288999 -0.00720717321356 0
0.00403601865023 -0.0551530193597 0
-0.00383001879136 -0.00482687229517 0
0.00156147815946 -0.025298189923 0
-0.0130220125408 -0.0320659481916 0
0.00679859542372 -0.00548240500217 0
-0.00458674805633 -0.0638095192152 0
-0.00591272882351 -0.00245198372625 0
-0.00855535758195 -0.0300758198212 0
0.00504256588697 -0.0770879372008 0
0.00429474684163 -0.0738490877453 0
0.0065060719196 -0.00257028991813 0
-7.41991643443e-05 -0.0719799604052 0
-0.0112395637519 -0.0485838398967 0
-0.00439110334926 -0.00111668063628 0
0.00440233130982 -0.001118714895 0
-0.00705345040681 -0.00963730077507 0
0.00741837899625 -0.0101984172601 0
0.013794414888 -0.0275016503944 0
-0.00637696090991 -0.00380225895508 0
0.00703337326658 -0.0698103596569 0
-0.0059641876756 -0.0742071899311 0
0.0122146987942 -0.0288467653396 0
-0.0136216017115 -0.0181760270645 0
0.00638346785335 -0.0175399849137 0
0.0070955401401 -0.0451164391472 0
-0.00862645049111 -0.0021648927193 0
0.00865976022073 -0.0021682894206 0
-0.00903234842097 -0.0205946823183 0
0.00931141379461 -0.026170660971 0
-0.00302111395938 -0.0434809242209 0
-0.0101421226238 -0.00345657314912 0
-0.00236939654087 -0.0920355853312 0
0.0101733330414 -0.00345571740282 0
0.00882361942721 -0.00138212755147 0
-0.00879074991765 -0.00137277005748 0
0.00846199140629 -0.0428118121293 0
0.00608120281435 -0.00725305577546 0
0.00506269537144 -0.0120702429525 0
-0.00549433127531 -0.00840606012218 0
0.0036769767827 -0.0863180399463 0
0.0119303006647 -0.0124293676751 0
1.03076581932e-05 -0.00986355302964 0
0.00917956324615 -0.00526924828578 0
0.0118221395924 -0.0344458828129 0
-0.0103338485978 -0.00481266470657 0
-0.00508177606475 -0.00161091604527 0
0.00509134518058 -0.00161676870427 0
-0.00658772213818 -0.00633285918639 0
-0.0120234514242 -0.0126262313022 0
-0.0047360228991 -0.00131179412349 0
0.0047820347383 -0.00131798677974 0
-0.00591370385301 -0.000607670725265 0
0.00595583336892 -0.000617133164799 0
-0.00271810541027 -0.0108068526689 0
-0.00904863377576 -0.0126203438682 0
-0.0112994064265 -0.00878543584077 0
-0.0133472052468 -0.0320924213382 0
-0.00216844076302 -0.0520959126696 0
0.00263359095124 -0.0111441553147 0
0.01162679933 -0.00811875178919 0
-0.00880177199274 -0.0033797597923 0
0.00107846699528 -0.0145924922389 0
0.00882581219113 -0.00328943421098 0
0.0129525483419 -0.015829248759 0
0.00836585139626 -0.0596224068427 0
0.000873310611284 -0.0374228543343 0
0.000445314351048 -0.0644673585182 0
-0.0119712703663 -0.04518140501 0
0.00309363561354 -0.00666073232258 0
-0.00568469896257 -0.00205608980272 0
0.00572651898883 -0.00205864642437 0
-0.0038660650445 -0.0754909562799 0
-0.00360536062725 -0.0845942485651 0
0.0129791250969 -0.0382454707818 0
-0.00668341262783 -0.0015360494755 0
0.00672310406106 -0.00154114106332 0
-0.00947287377793 -0.00241615474867 0
0.00948797050271 -0.00241806045417 0
0.00102211124549 -0.098723751048 0
0.00356907238656 -0.0747835069322 0
-0.000845485402459 -0.0192357111455 0
-0.00469309004863 -0.000442510095151 0
0.00473940837066 -0.000452441957319 0
0.00961435070637 -0.047250253269 0
-0.00842207164526 -0.063392856913 0
0.00192472036855 -0.00939044941985 0
-0.00840595213303 -0.00526424020727 0
0.012843211902 -0.0220901408443 0
-0.00557791983633 -0.00330292635204 0
0.0084791209862 -0.0212751207734 0
0.0057247721277 -0.00336060323341 0
-6.43893056344e-06 -0.0264741396217 0
0.00543999623011 -0.0613275149415 0
0.00674807724676 -0.0359892341949 0
-0.00868872846283 -0.055463519301 0
0.00429520129434 -0.00931401944844 0
-0.0124562020982 -0.0202376734192 0
-0.00695862235286 -0.00482877532412 0
0.0106135337042 -0.00467212518639 0
0.00355216363269 -0.00444874443978 0
-0.0121646366078 -0.0392656563961 0
-0.00285146542177 -0.0704636806671 0
-0.0137793972713 -0.0281598849351 0
-0.00255406719339 -0.00702946447033 0
-0.00807975263344 -0.060456428363 0
0.000769838920079 -0.0845601920777 0
-0.00493633916534 -0.0544009220615 0
-0.00566863285114 -0.0151268513145 0
-0.00331551518842 -0.0880452882985 0
-0.00619162475266 -0.065303859468 0
-0.00756339323247 -0.000943849319559 0
0.00760099112861 -0.000953088240742 0
0.00741578895824 -0.0587485281143 0
0.00899787740084 -0.0311082204038 0
0.00464188609977 -0.00144144311216 0
-0.0104672307413 -0.0126130328772 0
-0.00184151902203 -0.00935709702704 0
-0.0105448729666 -0.00526508187554 0
-0.00661209416722 -0.00707599259496 0
-0.0123573920126 -0.0298415602731 0
-0.0121750334721 -0.028027189023 0
-0.00949708929504 -0.00788812180063 0
-0.00438628203873 -0.00136924116474 0
-0.000454026869457 -0.0374120598788 0
-0.00140572953292 -0.0506722382676 0
-0.00146149150482 -0.096910603394 0
0.0115497884983 -0.0355248679661 0
-0.00774617058646 -0.00199591127395 0
0.00778475400456 -0.00199857289775 0
0.00871460400841 -0.00209997195242 0
-0.00870103914781 -0.00209108411353 0
0.0106466665168 -0.0052968028523 0
-0.000275300703999 -0.0450054550852 0
0.00328532851962 -0.0855894503129 0
-0.00396811142918 -0.0032460341376 0
0.00399645566372 -0.00326831027535 0
-0.0120847362695 -0.00882637764565 0
-0.000980291849164 -0.0159832218734 0
0.00289407413966 -0.0914841654234 0
0.00492886119083 -0.00522516874911 0
-0.00781821899898 -0.0473037956682 0
-0.00218019638379 -0.0847689639494 0
0.00171095911316 -0.0505128013026 0
-0.00425178930001 -0.00232014692987 0
0.00429906525907 -0.00232101289447 0
0.00770091402564 -0.0297852210046 0
0.0111587504794 -0.00902450418434 0
-0.00375389214824 -0.0698079597411 0
0.00847694452437 -0.0213640074706 0
0.0100381441147 -0.00656499551618 0
0.00973652721041 -0.0174675917574 0
0.00239011523679 -0.0624300784461 0
-0.0100682891389 -0.0112077049011 0
0.00767928314404 -0.00796731282825 0
-0.00681101624855 -0.0578387440267 0
-0.000303233721002 -0.0892515430132 0
-0.00485590585367 -0.00497118733686 0
-0.00345825185307 -0.0807633949738 0
-0.00532002524523 -0.00949070936579 0
0.00941417131025 -0.00801820306978 0
0.00126852401853 -0.0307050935527 0
0.0106612288519 -0.0042694843847 0
0.0010995292444 -0.0124008437834 0
-0.00394162211673 -0.0360363251475 0
0.0110066640563 -0.051039977335 0
-0.0127537792563 -0.0204309435844 0
-0.00879530286407 -0.0360813350748 0
0.000210371619877 -0.0172611607499 0
0.00707893937657 -0.00456254236606 0
-0.0106394913856 -0.00427710819872 0
0.00397313758862 -0.0303185335984 0
5.9460596998e-05 -0.0304900707289 0
-0.00427360670076 -0.0206912420027 0
0.0092602923155 -0.00153674327729 0
-0.00923013807047 -0.00152588894113 0
0.00621053174256 -0.0741008322525 0
0.012149197074 -0.0404082391128 0
-0.00458176908409 -0.0259916475407 0
0.0137645827254 -0.0188115426219 0
-0.00868908678944 -0.00359546625814 0
-0.00308244934303 -0.00554700881545 0
-0.00490574751376 -0.00346631703263 0
0.00227194283812 -0.0880225737691 0
-0.00593713353723 -0.0721452128645 0
-0.00528255479327 -0.077702002372 0
-0.00133912357087 -0.0118416075172 0
-0.00885204465184 -0.0249926594518 0
-0.00495075798353 -0.00233286916926 0
-0.00417762630786 -0.0126646471722 0
0.00499573877211 -0.00233353248193 0
0.00983937191325 -0.0134874834475 0
-0.00200989982632 -0.0617960712482 0
-0.000493965507364 -0.0977083269647 0
0.00633245252233 -0.0706485220766 0
-0.011170042729 -0.00730254646687 0
-0.00827601584347 -0.024921036283 0
0.0112204722021 -0.0451451982334 0
0.0124659700212 -0.023755060123 0
0.0123774250053 -0.0186046698737 0
0.00525732496286 -0.0589330825741 0
0.00417572756126 -0.0831154665376 0
-0.00587583791159 -0.0191682775258 0
0.00466111863705 -0.00441725656808 0
-0.0128800538278 -0.0121728540482 0
0.00221161466168 -0.0953331565653 0
-0.0115500277848 -0.00671654031058 0
0.00506968680227 -0.00351506175127 0
-0.00506168393856 -0.0065564270384 0
-0.00478246818869 -0.00312998608509 0
0.00486189945666 -0.00326443662115 0
0.0046903308361 -0.0463336004345 0
-0.0043967006392 -0.000937008861354 0
0.00444411589788 -0.000944879259744 0
0.00337163060563 -0.0793541531393 0
-0.0035570713966 -0.00437019842199 0
-0.0096505027936 -0.00229903734536 0
0.00967968905035 -0.00230323512905 0
0.0131869986051 -0.0143247593643 0
0.0054751214804 -0.0485877412276 0
0.00620577158672 -0.0144166138937 0
-0.00373492699792 -0.00929072148838 0
0.00257612990839 -0.0587986158507 0
-0.00253749439738 -0.00628426139644 0
0.00917714713809 -0.058708975747 0
-0.00618299860027 -0.0708518125761 0
-0.0110644337975 -0.0464379655963 0
-0.010759562713 -0.0471942131263 0
-0.00130967419863 -0.0768794128751 0
-0.00529855273975 -0.000331984152737 0
0.00534268750073 -0.000342399914633 0
-0.0139006712487 -0.0221990718567 0
0.00399334125203 -0.0172808444559 0
-0.00630095903812 -0.00265494298445 0
-0.00305405628904 -0.0823034898664 0
0.00634771551104 -0.00265580332459 0
0.00359782561972 -0.00908888497446 0
0.00220481970437 -0.0824483504862 0
-0.0122969870279 -0.0120896716513 0
-0.0105368871668 -0.0392313448102 0
0.0104481691786 -0.00858334150476 0
-0.00774120378414 -0.0654811256715 0
-0.00526723108706 -0.00124713250403 0
0.0053112532451 -0.00125367490512 0
0.0127809715418 -0.0115402329819 0
0.00809050884574 -0.00207430287959 0
-0.00810206332524 -0.00207885005363 0
0.00466098424823 -0.00745329460662 0
0.00140407837662 -0.0707759177508 0
-0.0107290324426 -0.0523997501496 0
0.00979720833891 -0.0110853455721 0
0.0099810245058 -0.0187338266571 0
-0.00921478661188 -0.00208529883047 0
0.0092307965355 -0.00209185795297 0
-0.00790403539988 -0.00827451792032 0
-0.0041206778637 -0.00486974591246 0
0.00284050224252 -0.00594526853198 0
0.0116667187972 -0.00795584201646 0
0.0031567942713 -0.0722374502429 0
-0.00764875833065 -0.00331411599286 0
-0.00334360730187 -0.019933444026 0
0.00767686628976 -0.0033020656781 0
0.011204545725 -0.0121579853397 0
-0.00226688126803 -0.0948735700692 0
0.0069651329544 -0.0664232306078 0
0.00495954474279 -0.004303279546 0
-0.000255588359504 -0.0225133390769 0
0.0114766562393 -0.00652236626344 0
0.00505945333082 -0.0261155937188 0
0.0135099676928 -0.0271391132507 0