# vtk DataFile Version 2.0
Generated with Solid Solver
ASCII
DATASET UNSTRUCTURED_GRID
POINTS 999 float 
0.2 4.325 0.0
1.4 4.325 0.0
1.4 4.825 0.0
0.2 4.825 0.0
1.4 4.34523264049 0.0
1.4 4.36751203886 0.0
1.4 4.39204525371 0.0
1.4 4.4190602782 0.0
1.4 4.44880817466 0.0
1.4 4.48156541084 0.0
1.4 4.51763640748 0.0
1.4 4.5573564007 0.0
1.4 4.60109451608 0.0
1.4 4.64925723872 0.0
1.4 4.70229217343 0.0
1.4 4.76069218095 0.0
1.33333333333 4.825 0.0
1.26666666667 4.825 0.0
1.2 4.825 0.0
1.13333333333 4.825 0.0
1.06666666667 4.825 0.0
1.0 4.825 0.0
0.933333333334 4.825 0.0
0.866666666668 4.825 0.0
0.800000000001 4.825 0.0
0.733333333334 4.825 0.0
0.666666666668 4.825 0.0
0.600000000001 4.825 0.0
0.533333333334 4.825 0.0
0.466666666667 4.825 0.0
0.4 4.825 0.0
0.333333333334 4.825 0.0
0.266666666667 4.825 0.0
0.2 4.76069218095 0.0
0.2 4.70229217343 0.0
0.2 4.64925723872 0.0
0.2 4.60109451608 0.0
0.2 4.5573564007 0.0
0.2 4.51763640748 0.0
0.2 4.48156541084 0.0
0.2 4.44880817466 0.0
0.2 4.4190602782 0.0
0.2 4.39204525371 0.0
0.2 4.36751203886 0.0
0.2 4.34523264049 0.0
0.212131543907 4.30926329506 0.0
0.224675715302 4.29385348652 0.0
0.23762369102 4.27878141198 0.0
0.250966423879 4.26405760374 0.0
0.264694484585 4.24969246611 0.0
0.278798324214 4.23569599189 0.0
0.293267939266 4.22207810803 0.0
0.308093289028 4.20884826442 0.0
0.323263842145 4.19601585877 0.0
0.338769084145 4.18358978512 0.0
0.354597997314 4.17157887342 0.0
0.37073960121 4.15999145532 0.0
0.387182441982 4.14883575334 0.0
0.403915091795 4.13811952025 0.0
0.420925712897 4.12785033813 0.0
0.438202430937 4.11803537461 0.0
0.455733079095 4.10868154223 0.0
0.473505374364 4.09979539439 0.0
0.491506842655 4.09138316882 0.0
0.509724826085 4.0834507802 0.0
0.528146580414 4.07600377808 0.0
0.546759103951 4.06904741762 0.0
0.56554943677 4.06258654322 0.0
0.584504260001 4.05662573401 0.0
0.60361041518 4.0511691282 0.0
0.622854334779 4.04622060039 0.0
0.642222678753 4.04178358113 0.0
0.661701681839 4.03786122392 0.0
0.681277836375 4.03445624851 0.0
0.700937245817 4.03157107217 0.0
0.720666255912 4.02920769845 0.0
0.740450894784 4.02736780161 0.0
0.76027736978 4.02605266363 0.0
0.780131702711 4.02526321235 0.0
0.799999999998 4.025 0.0
0.819868297285 4.02526321235 0.0
0.839722630216 4.02605266363 0.0
0.859549105212 4.02736780161 0.0
0.879333744085 4.02920769845 0.0
0.89906275418 4.03157107217 0.0
0.918722163621 4.03445624851 0.0
0.938298318157 4.03786122392 0.0
0.957777321244 4.04178358113 0.0
0.977145665218 4.04622060039 0.0
0.996389584817 4.0511691282 0.0
1.01549574 4.05662573401 0.0
1.03445056323 4.06258654322 0.0
1.05324089605 4.06904741762 0.0
1.07185341958 4.07600377808 0.0
1.09027517391 4.0834507802 0.0
1.10849315734 4.09138316882 0.0
1.12649462563 4.09979539439 0.0
1.1442669209 4.10868154222 0.0
1.16179756906 4.1180353746 0.0
1.1790742871 4.12785033813 0.0
1.1960849082 4.13811952024 0.0
1.21281755802 4.14883575334 0.0
1.22926039879 4.15999145532 0.0
1.24540200269 4.17157887342 0.0
1.26123091585 4.18358978512 0.0
1.27673615785 4.19601585877 0.0
1.29190671097 4.20884826442 0.0
1.30673206073 4.22207810803 0.0
1.32120167579 4.23569599189 0.0
1.33530551541 4.24969246611 0.0
1.34903357612 4.26405760374 0.0
1.36237630898 4.27878141198 0.0
1.3753242847 4.29385348652 0.0
1.38786845609 4.30926329506 0.0
1.05632730172 4.46025283906 0.0
0.549964048968 4.4630053958 0.0
0.806135520676 4.31186690218 0.0
0.603895783049 4.26079310371 0.0
1.22984770884 4.38318704125 0.0
0.3703382852 4.38423552752 0.0
0.995322815839 4.25565031136 0.0
0.728315816804 4.1765935937 0.0
0.872128173905 4.17288724072 0.0
1.14059401893 4.27298468684 0.0
0.461553191009 4.27181671009 0.0
0.784706775856 4.56821390922 0.0
0.398287125272 4.57945970538 0.0
1.20625306554 4.58334743514 0.0
0.624100842742 4.1589824436 0.0
0.5257453845 4.18811776279 0.0
0.978502430793 4.15488737058 0.0
1.07419209812 4.18825154482 0.0
0.364313698077 4.28677035763 0.0
1.23509538257 4.28681716733 0.0
0.68124123937 4.39284548972 0.0
1.31679378691 4.35012066749 0.0
0.283206213094 4.35012066749 0.0
0.791498533126 4.11467141721 0.0
0.931481076052 4.3801344917 0.0
0.966719065571 4.62778042839 0.0
0.684451667517 4.11068036752 0.0
0.618335406951 4.62686910993 0.0
0.450982331762 4.19686171732 0.0
0.915674266355 4.10995633851 0.0
1.14900051594 4.19689012964 0.0
1.30193709687 4.4481448133 0.0
0.298574667609 4.44816296922 0.0
1.05734787542 4.34990107617 0.0
0.539273225177 4.35252599628 0.0
0.709896798149 4.27721026287 0.0
0.895708916005 4.26924194389 0.0
0.813273511364 4.43835766235 0.0
0.559289631452 4.13230879113 0.0
1.04001407307 4.13281539633 0.0
0.801161810585 4.23146244955 0.0
0.665113819616 4.52056650186 0.0
0.852577362173 4.09111846388 0.0
0.390256727869 4.2242806298 0.0
1.20974450479 4.22428104599 0.0
0.921542541183 4.52778058719 0.0
1.14030889032 4.36437344809 0.0
1.15600477272 4.46808538305 0.0
0.435243219029 4.4750581257 0.0
0.462045157798 4.36654654286 0.0
0.735806812738 4.08472269746 0.0
1.30082934537 4.29793772796 0.0
0.299170654625 4.29793772796 0.0
0.533651712118 4.26265983853 0.0
0.666130919144 4.21652131559 0.0
1.0676097303 4.26179469382 0.0
1.08054433577 4.58530946155 0.0
0.506773767255 4.56568295079 0.0
0.626745312844 4.10124420826 0.0
0.933845304214 4.2106954732 0.0
0.293717639664 4.55175000185 0.0
0.312505022079 4.66426411351 0.0
1.3058164124 4.55154930624 0.0
1.29054387065 4.66302765963 0.0
0.973467966326 4.09941619478 0.0
0.487935413164 4.15087084015 0.0
0.461549079751 4.68836834982 0.0
1.11203248746 4.15093503889 0.0
1.14453515393 4.70617370303 0.0
0.840217564202 4.68891146633 0.0
0.585347033288 4.20539048534 0.0
0.619177396637 4.34227576306 0.0
0.331644410315 4.24962190462 0.0
1.26835558968 4.24962190462 0.0
1.01536156978 4.19987473052 0.0
0.809331033562 4.07065709122 0.0
0.982321540791 4.33437358971 0.0
0.725600576914 4.66999651799 0.0
0.812291456186 4.16642942492 0.0
0.335887692543 4.33918235669 0.0
1.26344844681 4.34017131907 0.0
1.23449730504 4.49457441524 0.0
1.34334172095 4.40539551957 0.0
0.256658279045 4.40539551957 0.0
0.741646926828 4.34287908527 0.0
0.674799084703 4.16673768522 0.0
1.18647435526 4.30955189749 0.0
0.360563250283 4.49596479569 0.0
0.873716483853 4.33845499203 0.0
0.418704489949 4.31146264283 0.0
0.492670911224 4.22931614809 0.0
0.403480880356 4.19046776931 0.0
1.19651541215 4.1904686246 0.0
0.728649253738 4.46214546491 0.0
1.00883674467 4.40174664879 0.0
1.11035034557 4.23161841276 0.0
0.261968539765 4.3130079512 0.0
1.33803146023 4.3130079512 0.0
0.74649980488 4.1318354354 0.0
0.927597725248 4.1577597079 0.0
0.892956618256 4.07619338913 0.0
0.659794281787 4.07951387326 0.0
0.587663534405 4.09486537006 0.0
0.942353209926 4.07935300973 0.0
1.01493747319 4.09476013719 0.0
0.613130017774 4.41369803882 0.0
0.449373501074 4.15377191978 0.0
0.514840228377 4.12225850006 0.0
0.497057592 4.41333092106 0.0
1.15061382426 4.15379293084 0.0
1.08514419473 4.12228328152 0.0
0.745617635771 4.23098957592 0.0
0.87523452213 4.59853036549 0.0
0.855262884783 4.2258970831 0.0
1.01126200032 4.53280064162 0.0
1.09391916408 4.40632408872 0.0
1.04436265455 4.71482000827 0.0
0.314320181089 4.38773968607 0.0
1.28649331902 4.38743720145 0.0
0.771211579291 4.06316862024 0.0
0.432259099658 4.24006002157 0.0
0.698583889427 4.07144353526 0.0
1.16802128371 4.238862881 0.0
1.09587629216 4.3086676659 0.0
1.35920470355 4.35666960471 0.0
0.240795296449 4.35666960471 0.0
0.504003580654 4.30815758118 0.0
0.579942709371 4.5342075073 0.0
0.875915224914 4.12815792528 0.0
0.426503136644 4.40717733008 0.0
0.57541416445 4.30365301522 0.0
0.683877978289 4.33161848113 0.0
0.888061695889 4.44633509246 0.0
0.26012287522 4.49859249103 0.0
1.33987712478 4.49859249103 0.0
0.801393572636 4.37060096582 0.0
0.558460082533 4.72496728209 0.0
1.1741923373 4.41132830101 0.0
0.83220012886 4.12779415912 0.0
1.02815069622 4.30053276509 0.0
0.948308583502 4.2880204454 0.0
0.846588933095 4.50834596945 0.0
0.343666800815 4.43485820652 0.0
1.25632767671 4.43480360053 0.0
0.97849585731 4.47031535602 0.0
1.10170977548 4.51507265998 0.0
0.662193131828 4.26809398492 0.0
0.400503668388 4.26881657105 0.0
1.20117145985 4.26130427377 0.0
0.350957892513 4.21796558019 0.0
1.24904210749 4.21796558019 0.0
0.771964652188 4.18905379403 0.0
0.932165148285 4.72736281402 0.0
0.373672364094 4.73321357765 0.0
0.760245937722 4.28409350779 0.0
0.848718469252 4.05767763075 0.0
1.23385612561 4.7358294747 0.0
0.846421485813 4.28065918421 0.0
0.651597058631 4.13043284014 0.0
0.650489852552 4.72138045504 0.0
0.58457834847 4.16375088261 0.0
0.48701309933 4.18859927013 0.0
0.708495738406 4.58856947756 0.0
1.11203398596 4.18878062515 0.0
0.54865558244 4.10250047869 0.0
1.05126102377 4.10234629471 0.0
0.300013757486 4.26259646442 0.0
1.29998624251 4.26259646442 0.0
0.9465032388 4.12718070354 0.0
0.708587583337 4.14146095907 0.0
0.973348904468 4.19537871864 0.0
0.628721855632 4.19538356945 0.0
0.380175010018 4.34021880077 0.0
0.662092932411 4.45899041267 0.0
1.05133526787 4.22221992007 0.0
0.528087045766 4.64327882187 0.0
1.22233124543 4.33521693908 0.0
1.19001193434 4.36273586668 0.0
0.853024099244 4.39544003492 0.0
0.542800296246 4.22324366905 0.0
0.247706318737 4.45239119247 0.0
1.35229368126 4.45239119247 0.0
0.599153768578 4.12953797005 0.0
1.01616570494 4.16227683178 0.0
0.744705786938 4.40569544575 0.0
1.31929001115 4.73702550052 0.0
0.777615355331 4.15113602511 0.0
1.33132411895 4.60631378639 0.0
0.265621610877 4.60975488866 0.0
0.532023338888 4.15374454388 0.0
1.0697792195 4.15241429251 0.0
0.286371037106 4.73010312914 0.0
0.497725885905 4.50153668256 0.0
0.46053455822 4.31587947599 0.0
0.433799237968 4.54629400991 0.0
0.388624781906 4.65094200004 0.0
0.554823673752 4.40451940232 0.0
1.1421595646 4.31818301431 0.0
1.14760043966 4.61655103139 0.0
1.21258698805 4.65320200685 0.0
1.16279096046 4.53292621409 0.0
0.995762647814 4.12508772517 0.0
0.456229040627 4.61456685246 0.0
0.707289391156 4.21520271873 0.0
0.763036833302 4.74285445535 0.0
0.78386198569 4.49787013126 0.0
[...]
POINT_DATA 999
VECTORS Displacement float
-0.00241142571304 -0.176855090196 0
0.00240112738382 -0.176863422802 0
0.0 -0.18 0
0.0 -0.18 0
0.00259281915336 -0.176849389491 0
0.00277778452407 -0.176830343918 0
0.00294360232488 -0.176807601929 0
0.00308408172255 -0.176797428611 0
0.00316858871511 -0.176808107797 0
0.00322067053454 -0.176848554487 0
0.00319001618252 -0.176926254998 0
0.00306992446935 -0.17704973568 0
0.00284696777561 -0.177254523071 0
0.00247733757439 -0.177562377684 0
0.00194297511038 -0.178030087135 0
0.00117400229249 -0.178745721759 0
0.0 -0.18 0
0.0 -0.18 0
0.0 -0.18 0
0.0 -0.18 0
0.0 -0.18 0
0.0 -0.18 0
0.0 -0.18 0
0.0 -0.18 0
0.0 -0.18 0
0.0 -0.18 0
0.0 -0.18 0
0.0 -0.18 0
0.0 -0.18 0
0.0 -0.18 0
0.0 -0.18 0
0.0 -0.18 0
0.0 -0.18 0
-0.00116690607709 -0.178751464029 0
-0.00193592774062 -0.178034855977 0
-0.00249459451383 -0.177563290271 0
-0.00285268919977 -0.177249861645 0
-0.00307380086901 -0.177042549084 0
-0.00319619594576 -0.176917949978 0
-0.0032280518598 -0.176840778351 0
-0.00317652354289 -0.176800371944 0
-0.0030925013605 -0.176789573775 0
-0.00295253030088 -0.176799559769 0
-0.00278722829637 -0.176822142141 0
-0.00260273483881 -0.176841092777 0
-0.00225354992159 -0.176752393125 0
-0.00207997686915 -0.176638138026 0
-0.00189234149624 -0.176505230519 0
-0.00168703761601 -0.176353914577 0
-0.00146524048175 -0.17617787692 0
-0.00123320112012 -0.175972957145 0
-0.000987896361544 -0.175741840874 0
-0.000719715113613 -0.175481629475 0
-0.000432440792837 -0.175171167361 0
-0.000140001526576 -0.174834864389 0
0.000171815306538 -0.174448730391 0
0.000515448076374 -0.174009363037 0
0.000871443552588 -0.173494827738 0
0.00125960347055 -0.172900278113 0
0.00167552035304 -0.172179949632 0
0.00216659819079 -0.171189565726 0
0.00254854859312 -0.170172330139 0
0.00283694074327 -0.169156971046 0
0.00304191894036 -0.168194238302 0
0.00317988440939 -0.167250239664 0
0.00325731850946 -0.166360371073 0
0.00326554726638 -0.165508457805 0
0.00322775285865 -0.164717697587 0
0.00313471090111 -0.16397038392 0
0.00300053657367 -0.16328663249 0
0.00281598152707 -0.162655793767 0
0.00260260328553 -0.162089485788 0
0.00235110993343 -0.161585616387 0
0.00208071797111 -0.161150679899 0
0.00177634685854 -0.16077180149 0
0.00145576045568 -0.160463389857 0
0.00110938578977 -0.160212087221 0
0.000755612391467 -0.160024521077 0
0.000387479987921 -0.159895574784 0
-2.4817736885e-05 -0.159801833045 0
-0.000416799721801 -0.159900093754 0
-0.000786084526831 -0.160026877998 0
-0.00113997051977 -0.160208995016 0
-0.00147865745799 -0.160459450172 0
-0.00179958665032 -0.160772748761 0
-0.00210356198564 -0.161151452762 0
-0.00238340579888 -0.161597337661 0
-0.00262396918676 -0.162094495049 0
-0.00283564551329 -0.162659236082 0
-0.00301953443415 -0.163288662727 0
-0.00315403947671 -0.16397192558 0
-0.0032473531177 -0.164717968071 0
-0.00328695289117 -0.165510050966 0
-0.00327728793575 -0.166363352857 0
-0.00319962588146 -0.16725238658 0
-0.00306171192335 -0.168195692513 0
-0.00285787084446 -0.169156929841 0
-0.00256758361203 -0.170178541793 0
-0.00217752201903 -0.171208500763 0
-0.00168878116983 -0.17219021442 0
-0.00127316298478 -0.172909203727 0
-0.000885026734408 -0.173503262389 0
-0.000528852184831 -0.174017600828 0
-0.000184934299345 -0.17445689032 0
0.000127210222602 -0.174842960388 0
0.00041997800884 -0.175179219624 0
0.000707531686048 -0.175489624867 0
0.000975981778109 -0.175749778963 0
0.00122153877871 -0.175980868719 0
0.00145384269561 -0.176185773432 0
0.00167584019842 -0.176361791355 0
0.00188132784867 -0.176513145256 0
0.00206916374015 -0.176646149401 0
0.00224297612348 -0.176760546437 0
0.00213601172671 -0.173656596135 0
-0.00209534076301 -0.173636455742 0
3.85147115811e-05 -0.167805135248 0
-0.00102853319588 -0.16825217468 0
0.00276882022241 -0.175027607565 0
-0.00277897956374 -0.175027229718 0
0.000969440062715 -0.168108011086 0
2.87002653106e-05 -0.164167846335 0
-6.97341813351e-05 -0.164072451299 0
0.00173981244117 -0.172027071049 0
-0.00173233903253 -0.171946761705 0
-0.000120834766865 -0.174676847811 0
-0.00246320412995 -0.176906132115 0
0.00244822019628 -0.176985422675 0
0.000355941556003 -0.165254138585 0
-0.000224723156438 -0.16859248949 0
-0.000450436546192 -0.165217573826 0
0.000216257192995 -0.168594390191 0
-0.00200586734207 -0.17447636541 0
0.00199463739648 -0.17446965333 0
-0.00106332496716 -0.170615214591 0
0.0026372008397 -0.176034047995 0
-0.002646660514 -0.176026828053 0
4.85725058366e-05 -0.162141882187 0
0.00114637796495 -0.170397409614 0
0.00109036592526 -0.176400321288 0
0.000843554457344 -0.162917879679 0
-0.00118948381818 -0.176441484256 0
-0.000521137581829 -0.171358121842 0
-0.000874313591457 -0.162901647401 0
0.000510140962661 -0.17136568426 0
0.00308002003925 -0.176310239141 0
-0.00308600877142 -0.176301182328 0
0.00196759278627 -0.171462558573 0
-0.00200753255217 -0.171573345966 0
-0.000551888521421 -0.16718967535 0
0.000536170942066 -0.167019652781 0
0.000121617002277 -0.171363598896 0
0.00111850013612 -0.166337113431 0
-0.00111951864309 -0.166325669948 0
-3.19585370198e-06 -0.165454661022 0
-0.00116014726044 -0.173898034305 0
-0.000523633242002 -0.161706274407 0
-0.00106492517195 -0.173555072912 0
0.00105231355062 -0.173564280445 0
0.00103590495507 -0.173994886583 0
0.00243757395775 -0.173285725563 0
0.00265805944391 -0.175007443427 0
-0.00270217159791 -0.175201526726 0
-0.00244420926791 -0.173264629558 0
0.000665426192046 -0.161635824703 0
0.00212163220156 -0.175701173254 0
-0.00213225065798 -0.175693691286 0
-0.00137999603843 -0.169876840621 0
-0.00035996059031 -0.166011978287 0
0.00136340809571 -0.169892747313 0
0.00191150709096 -0.176200513036 0
-0.00207203453634 -0.175948342774 0
0.00146764805904 -0.163784433543 0
0.000291292492563 -0.165854563103 0
-0.00292170157793 -0.177072414021 0
-0.002035429083 -0.178160145561 0
0.00291915857093 -0.177075788304 0
0.00205790377759 -0.178149769839 0
-0.00152384170013 -0.163751643445 0
0.000725806239575 -0.169266072046 0
-0.00143455957792 -0.178128524328 0
-0.000738263978265 -0.169270271863 0
0.00129621381021 -0.178409574831 0
0.000211544716031 -0.177402990378 0
-0.000430081021007 -0.167298185478 0
-0.00144147733343 -0.170021575005 0
-0.00146899566059 -0.175034484177 0
0.00145739664601 -0.175042297674 0
0.000329438331338 -0.16718528008 0
-0.000128096343512 -0.160973937167 0
0.001407901042 -0.16985474263 0
-0.000427177813071 -0.177043232441 0
-2.79465560952e-05 -0.163590930001 0
-0.00254405084812 -0.17525882908 0
0.00254130745676 -0.175259984894 0
0.00290624335538 -0.176145431677 0
0.00299768923474 -0.176443738604 0
-0.00300609544674 -0.176436928426 0
-0.000484461908462 -0.168839063866 0
0.000169013285114 -0.164530124883 0
0.00220378112496 -0.17356918689 0
-0.00293085903425 -0.176194537944 0
0.00059241863762 -0.168801679923 0
-0.00222213398668 -0.173469362035 0
-0.00107573530788 -0.170403174611 0
-0.00035428380117 -0.173010782847 0
0.00034108902342 -0.173018720553 0
-0.000655521565225 -0.172141100019 0
0.00178872694894 -0.171818460412 0
0.00110714120523 -0.170540954036 0
-0.00229708205859 -0.176220428095 0
0.00228653348426 -0.176227974614 0
0.000258042199158 -0.162791921188 0
-0.000295921932985 -0.164326989094 0
-0.00110142564361 -0.161736157187 0
0.00157967464086 -0.162567900411 0
0.00197115195309 -0.164657863345 0
-0.00162492691412 -0.162613285177 0
-0.00201718420104 -0.164736556757 0
-0.00164232844948 -0.171824746983 0
0.000639332885185 -0.170962396053 0
0.00162735876377 -0.167694041223 0
-0.00240941187344 -0.173418924386 0
-0.000651862303687 -0.170970964756 0
-0.00164451838105 -0.167696712612 0
-0.000199777821397 -0.1656006001 0
0.0005599284044 -0.175469865998 0
0.000171096543369 -0.165459853365 0
0.00168958644938 -0.174697079643 0
0.00234016319233 -0.173160033058 0
0.000960355727637 -0.178279657545 0
-0.00287429388861 -0.175805504841 0
0.00286537769849 -0.175819845768 0
0.000368573291768 -0.160845571964 0
-0.00134356064885 -0.172421093978 0
0.00124622543977 -0.161732361478 0
0.00131199048636 -0.172424842475 0
0.00192521163341 -0.171468080892 0
0.0026982316085 -0.176488884624 0
-0.00270783109077 -0.176481312656 0
-0.00193146637632 -0.171459265167 0
-0.00174589448079 -0.174794702405 0
-0.00041831705535 -0.162878601231 0
-0.00270829226337 -0.174417607396 0
-0.00152883177031 -0.169833750742 0
-0.0009191463738 -0.168952694522 0
0.000808952845701 -0.171803286543 0
-0.00314654380998 -0.176797104164 0
0.00313824088158 -0.176803850555 0
8.25726727162e-06 -0.16948502812 0
-0.000876168092268 -0.178435122758 0
0.00270747967577 -0.174488504852 0
-0.000185380242003 -0.162559668375 0
0.00151814948095 -0.169834564399 0
0.000945472746919 -0.168162016677 0
0.000415936744861 -0.173243002484 0
-0.002983888571 -0.175786951078 0
0.00297676400334 -0.175791442738 0
0.00156408393622 -0.173056318485 0
0.00229686605978 -0.175153766468 0
-0.000777325404892 -0.167475753108 0
-0.00177313948038 -0.173531614809 0
0.00165819361205 -0.173532470106 0
-0.000912123164091 -0.174564539622 0
0.000899970257068 -0.174572524493 0
-2.2605536479e-05 -0.164270967125 0
0.000508933055509 -0.178279721511 0
-0.00115052354668 -0.178923713993 0
-0.000257399346581 -0.167074135811 0
-0.000704965638388 -0.160836764759 0
0.00112531731295 -0.178964032244 0
0.000279712794843 -0.167002260751 0
0.000746067648648 -0.163974220572 0
-0.00059920161733 -0.178197528999 0
0.00031492131311 -0.166321785422 0
-0.00029750468194 -0.169926655463 0
-0.000691748741956 -0.175289566068 0
0.000288527629584 -0.16989800237 0
0.00208633109476 -0.16607012526 0
-0.00210938822682 -0.166066424481 0
-0.00166207373873 -0.175637466681 0
0.00165088572038 -0.17564519017 0
-0.000812229762709 -0.163864685588 0
0.000353663642481 -0.163405169959 0
0.000188388659076 -0.166135950993 0
-0.000199068391154 -0.166092518736 0
-0.00250749764665 -0.174507843967 0
-0.00124272964358 -0.17244701846 0
0.000779855597219 -0.168628034476 0
-0.00155023524115 -0.177152170064 0
0.00246502007796 -0.174520302286 0
0.00258269945106 -0.174178830126 0
0.000476337477826 -0.170284878798 0
-0.000825672999536 -0.168813832139 0
-0.00315932474032 -0.176640489862 0
0.00315146459799 -0.17664687715 0
0.00101524644225 -0.165132269171 0
-0.000362122158453 -0.166304230008 0
-0.000508311856952 -0.170572202467 0
0.00123339785043 -0.17894894311 0
5.58100859424e-05 -0.163175199691 0
0.00266064945586 -0.177545094581 0
-0.0026479000197 -0.177570271345 0
0.000604234751333 -0.167679228149 0
-0.000658209197799 -0.167717067356 0
-0.00130408907164 -0.178881952263 0
-0.00234355554662 -0.174925229317 0
-0.00215281773307 -0.172574730971 0
-0.00250222441435 -0.176217556948 0
-0.00196492268344 -0.17786651477 0
-0.00205125110169 -0.172387074422 0
0.00217072356898 -0.172673340445 0
0.00202586244383 -0.177116778706 0
0.00194688848241 -0.177899547695 0
0.00253691398345 -0.176000289125 0
-0.00110911384237 -0.164892436 0
-0.00202449151616 -0.177064250799 0
-0.000239225847513 -0.165458871945 0
-0.000130170758266 -0.178492207806 0
-0.000145897305059 -0.172935703428 0
0.000982230572346 -0.169094609439 0
0.000398130293709 -0.172290549419 0
0.000191347967409 -0.165324826335 0
-0.000411721420701 -0.172299562594 0
0.0030395066425 -0.176554322485 0
0.000904623905807 -0.16105588331 0
-0.00196601833452 -0.175165252398 0
0.0019552788664 -0.175172684238 0
-0.000422527932496 -0.173960378083 0
0.000409682911284 -0.173968555185 0
-0.0016673388375 -0.173317086411 0
-0.00262491311112 -0.174216110224 0
0.000304786002608 -0.16166619373 0
-0.000731897713743 -0.174043411242 0
-0.00153575657783 -0.174312750625 0
0.00152461730056 -0.174318397878 0
-0.00303989420303 -0.176511824624 0
0.00286347407872 -0.175416443368 0
0.000678489632116 -0.167116067142 0
-0.0019586323648 -0.176070711857 0
0.00194771335187 -0.176078393327 0
0.00141606324905 -0.177524399313 0
-0.00285867072915 -0.17540058636 0
-0.00248333330892 -0.176517306986 0
0.00247317438019 -0.176525085548 0
0.0020525860038 -0.16338797472 0
3.82285175543e-05 -0.164571633802 0
0.00250980485538 -0.177452276349 0
-0.00252210648523 -0.177446758653 0
-0.00153970923552 -0.170875321003 0
0.000663393703319 -0.162452720583 0
8.63943884001e-06 -0.166365479269 0
-0.000202448363992 -0.161748717345 0
0.00222380670782 -0.172369090653 0
0.00154535170545 -0.170928626044 0
-0.00116322245227 -0.168785270297 0
-0.00156666744884 -0.161742805632 0
-0.00203459309782 -0.16342449961 0
0.00244762367849 -0.174397871093 0
-0.00250128888565 -0.17570632552 0
0.00249192159907 -0.175712495513 0
0.00113016296543 -0.175121117074 0
-0.00223967554645 -0.172387745745 0
-0.00109135905108 -0.168667876783 0
-0.000117725002412 -0.167321304934 0
-0.00124258841029 -0.175097765098 0
-0.000119138319914 -0.176483006167 0
0.00145044843124 -0.169403026217 0
-0.00146463510815 -0.169406564257 0
-0.00118175779143 -0.171437229186 0
0.00110114530697 -0.171420157998 0
-0.00305278924672 -0.177059235131 0
0.00304807514574 -0.177064393023 0
-0.000724512946756 -0.167304198542 0
0.00111586272404 -0.16881567426 0
-3.99244257597e-05 -0.167558753571 0
0.00150811301393 -0.176147100227 0
-0.00104867381068 -0.161087404159 0
0.00125418991067 -0.171886556245 0
0.00288786805522 -0.1765963199 0
-0.00289689006233 -0.17658880234 0
-0.000707292753669 -0.172401447195 0
-0.000716260252353 -0.162222453527 0
0.000694578316015 -0.172408759567 0
-0.000493041924781 -0.166448631133 0
0.000625311069734 -0.176912386075 0
0.00074441649508 -0.179040484977 0
0.00207658633003 -0.172376774669 0
-0.00178928837779 -0.171116060815 0
0.00288320251747 -0.176133714191 0
-0.00289166919639 -0.176127273491 0
0.00277125038361 -0.176800288155 0
-0.00278736945351 -0.176765513946 0
-0.000457490157408 -0.163490395952 0
0.00191793376136 -0.172932690483 0
0.00172933037075 -0.161804510352 0
7.71195024562e-05 -0.160434304461 0
-0.000111930588248 -0.163445245595 0
-0.00260996016402 -0.174351593193 0
-0.00191704415054 -0.173058458541 0
-0.00104692370115 -0.175084387882 0
0.00103495403463 -0.175092285194 0
0.000279268845489 -0.168944797308 0
0.000419541071649 -0.166212034756 0
-0.000405498200995 -0.1606094871 0
0.0020621354685 -0.178186885694 0
-0.00232663920031 -0.174981445585 0
0.00230279674144 -0.17498969684 0
0.00165808060424 -0.170707352554 0
-0.00222712496687 -0.178025925626 0
-0.000701896307422 -0.179099820799 0
0.00254598681685 -0.17376354041 0
-0.00165822597558 -0.176274779511 0
0.000116692910426 -0.165164478091 0
0.00146890095686 -0.170687051725 0
0.00167693566879 -0.170494199811 0
0.000543323518642 -0.16710614034 0
0.00124396620949 -0.168949219992 0
-0.00137540280853 -0.170721268049 0
-0.00273201479642 -0.175990735961 0
0.00119802586334 -0.163307338923 0
0.000911975894529 -0.164590137107 0
-0.00269928109903 -0.175687443841 0
0.00268944880952 -0.175706074305 0
-0.00130832998918 -0.175464158627 0
0.0012965995637 -0.175472041571 0
-5.06344716422e-05 -0.164533906683 0
0.00208776815139 -0.173993543242 0
0.00204196412635 -0.174676345063 0
-0.000119541008311 -0.165189657107 0
-0.00170761377881 -0.170540034211 0
-0.000477420819288 -0.167722707466 0
-0.00228367572934 -0.174171653016 0
-0.00252578761804 -0.176287283839 0
0.00251573764152 -0.176294802482 0
0.000218446756976 -0.178656779444 0
0.000257281199505 -0.168679341049 0
0.000188517915946 -0.170231549127 0
-0.00254579286272 -0.173741951597 0
0.00051928187104 -0.167689600469 0
-0.00125636743721 -0.163293064819 0
-0.00237474026718 -0.174060486043 0
0.000764677296499 -0.169340421678 0
0.000765727258712 -0.179216539035 0
0.00249177905765 -0.16525107868 0
-0.0001922996378 -0.170244378343 0
-0.000737018413925 -0.176756627655 0
0.000103580174221 -0.163437212953 0
-0.000189623801644 -0.168794162847 0
-0.000143054092599 -0.16615645921 0
0.0023794130891 -0.166799726171 0
-0.00255114544875 -0.165253710119 0
-0.000735627919061 -0.169333546644 0
-0.00239884636606 -0.166801029714 0
-2.17492017188e-05 -0.162832309362 0
0.000144625624813 -0.166101758674 0
0.000133755535354 -0.161258826726 0
0.00308853008392 -0.17663767951 0
-0.00309675699663 -0.176630601972 0
0.00246075006209 -0.163811519 0
0.00218346408054 -0.162685678215 0
-0.000247906517523 -0.178970954102 0
-0.0021882606505 -0.16268625265 0
-0.00247584500657 -0.163846998995 0
0.00211591769226 -0.168591050627 0
0.00154213347354 -0.170350286144 0
-2.92237707954e-05 -0.164707634434 0
-0.00213399080933 -0.168592692929 0
-0.00155437904172 -0.170358312783 0
0.00278193744442 -0.175707722021 0
0.00126741854377 -0.177128309533 0
-0.000173181072537 -0.168683932317 0
0.000748147260601 -0.160578006702 0
-0.00119038898197 -0.162262417738 0
0.00130909526691 -0.161028913169 0
0.000513160442834 -0.163685394184 0
0.00262196984915 -0.17494547869 0
0.00287808308276 -0.176375446389 0
-0.00288699135159 -0.176368368204 0
-0.00206151921011 -0.174613985467 0
0.00300367583701 -0.176120085689 0
-0.00301163073423 -0.176114019811 0
0.000309817932899 -0.174527603942 0
-0.000773439682587 -0.167741118526 0
0.000458155294619 -0.178955584246 0
-0.000414942180905 -0.161284061811 0
0.000746298233192 -0.1700228601 0
0.000193628609266 -0.173416895987 0
-0.000207142197421 -0.173425319358 0
-0.00276022776043 -0.175377185468 0
0.000790271797569 -0.168060429743 0
-0.00134155180819 -0.165478391334 0
1.78820305275e-05 -0.166120794364 0
0.00221898343624 -0.176340671101 0
-9.17019565153e-05 -0.164756228962 0
-0.000813794691894 -0.167983711012 0
0.00122604467552 -0.162365422816 0
-8.72151959912e-07 -0.164413829216 0
-0.00284473550625 -0.175077592664 0
-0.000851585470763 -0.17122166486 0
-0.000348637503349 -0.162479055844 0
-0.000293206579817 -0.171604248834 0
-0.000823907190948 -0.169588740973 0
0.00149227619146 -0.166795951469 0
-0.000155069404871 -0.172126125952 0
0.000142437843964 -0.172134324948 0
-0.00150688959961 -0.1667976347 0
0.000274857571984 -0.167962046544 0
0.000411257683759 -0.162114330047 0
0.00161675510404 -0.165628416727 0
0.00303744424132 -0.176188242345 0
-0.00304165876353 -0.176161146757 0
-0.000695425557875 -0.179279608652 0
-8.09184137932e-05 -0.166131821819 0
0.00283337594215 -0.175064046771 0
0.000200540236861 -0.162247984524 0
-0.00146544988092 -0.161249694304 0
-0.00244349480274 -0.176005467455 0
0.00243307023543 -0.176012752019 0
-0.00213380302519 -0.176411165916 0
0.00212304786075 -0.176418958611 0
-0.00075278640431 -0.16168234258 0
-0.00245283085516 -0.173642139103 0
0.00142297925212 -0.164517530073 0
0.00271029277743 -0.176495051959 0
0.00077614980435 -0.168058748936 0
-0.00103270406958 -0.164199054637 0
0.00275103205192 -0.175385705447 0
-0.00259993796505 -0.176641342736 0
0.00259004159937 -0.176649245917 0
0.000665476077157 -0.174179901749 0
0.00183187553193 -0.172853008671 0
0.000920060012592 -0.168238650551 0
-0.00225696023888 -0.175377920224 0
0.00224662376333 -0.175384467658 0
-0.00141505757256 -0.173184483644 0
-7.5517517533e-05 -0.165076886974 0
0.00136762082132 -0.173215562938 0
0.000697422240899 -0.167252085511 0
0.000594370898889 -0.161140110774 0
-0.00222299348412 -0.172515198043 0
-0.000925777763841 -0.168269240713 0
-0.000766784004951 -0.173068800955 0
0.000753925422218 -0.173076173477 0
0.00144227412099 -0.174135766378 0
-0.00141787012903 -0.171241415602 0
-0.00075052979995 -0.179369422286 0
-0.00164181667282 -0.175943032056 0
0.00163056677673 -0.175950842501 0
0.000841379243546 -0.161936050438 0
0.000897909287327 -0.171777507001 0
-0.000911912689294 -0.171787857867 0
-0.000338762693138 -0.166554298074 0
-8.88177194832e-05 -0.165224285634 0
-0.000556574443854 -0.178807076902 0
-0.000746527253765 -0.170769785845 0
-0.000961826332143 -0.172928101007 0
0.00239993821741 -0.173464128211 0
0.000452350288151 -0.172140459182 0
0.00073870291447 -0.170828491844 0
0.000332736781089 -0.166448907149 0
0.00308663728785 -0.176435993029 0
-0.0030943361765 -0.176429865726 0
-0.00118362589694 -0.169887613092 0
-0.00176098180692 -0.174766757581 0
0.00174767315425 -0.174765774266 0
0.00188612419367 -0.171750710275 0
-0.00129279179971 -0.174633569706 0
0.00126652421435 -0.174629521602 0
-0.00319020883298 -0.176763357595 0
0.00318281550335 -0.176770083733 0
-0.00124142299195 -0.168904934768 0