# vtk DataFile Version 2.0
Generated with Solid Solver
ASCII
DATASET UNSTRUCTURED_GRID
POINTS 999 float 
0.2 4.325 0.0
1.4 4.325 0.0
1.4 4.825 0.0
0.2 4.825 0.0
1.4 4.34523264049 0.0
1.4 4.36751203886 0.0
1.4 4.39204525371 0.0
1.4 4.4190602782 0.0
1.4 4.44880817466 0.0
1.4 4.48156541084 0.0
1.4 4.51763640748 0.0
1.4 4.5573564007 0.0
1.4 4.60109451608 0.0
1.4 4.64925723872 0.0
1.4 4.70229217343 0.0
1.4 4.76069218095 0.0
1.33333333333 4.825 0.0
1.26666666667 4.825 0.0
1.2 4.825 0.0
1.13333333333 4.825 0.0
1.06666666667 4.825 0.0
1.0 4.825 0.0
0.933333333334 4.825 0.0
0.866666666668 4.825 0.0
0.800000000001 4.825 0.0
0.733333333334 4.825 0.0
0.666666666668 4.825 0.0
0.600000000001 4.825 0.0
0.533333333334 4.825 0.0
0.466666666667 4.825 0.0
0.4 4.825 0.0
0.333333333334 4.825 0.0
0.266666666667 4.825 0.0
0.2 4.76069218095 0.0
0.2 4.70229217343 0.0
0.2 4.64925723872 0.0
0.2 4.60109451608 0.0
0.2 4.5573564007 0.0
0.2 4.51763640748 0.0
0.2 4.48156541084 0.0
0.2 4.44880817466 0.0
0.2 4.4190602782 0.0
0.2 4.39204525371 0.0
0.2 4.36751203886 0.0
0.2 4.34523264049 0.0
0.212131543907 4.30926329506 0.0
0.224675715302 4.29385348652 0.0
0.23762369102 4.27878141198 0.0
0.250966423879 4.26405760374 0.0
0.264694484585 4.24969246611 0.0
0.278798324214 4.23569599189 0.0
0.293267939266 4.22207810803 0.0
0.308093289028 4.20884826442 0.0
0.323263842145 4.19601585877 0.0
0.338769084145 4.18358978512 0.0
0.354597997314 4.17157887342 0.0
0.37073960121 4.15999145532 0.0
0.387182441982 4.14883575334 0.0
0.403915091795 4.13811952025 0.0
0.420925712897 4.12785033813 0.0
0.438202430937 4.11803537461 0.0
0.455733079095 4.10868154223 0.0
0.473505374364 4.09979539439 0.0
0.491506842655 4.09138316882 0.0
0.509724826085 4.0834507802 0.0
0.528146580414 4.07600377808 0.0
0.546759103951 4.06904741762 0.0
0.56554943677 4.06258654322 0.0
0.584504260001 4.05662573401 0.0
0.60361041518 4.0511691282 0.0
0.622854334779 4.04622060039 0.0
0.642222678753 4.04178358113 0.0
0.661701681839 4.03786122392 0.0
0.681277836375 4.03445624851 0.0
0.700937245817 4.03157107217 0.0
0.720666255912 4.02920769845 0.0
0.740450894784 4.02736780161 0.0
0.76027736978 4.02605266363 0.0
0.780131702711 4.02526321235 0.0
0.799999999998 4.025 0.0
0.819868297285 4.02526321235 0.0
0.839722630216 4.02605266363 0.0
0.859549105212 4.02736780161 0.0
0.879333744085 4.02920769845 0.0
0.89906275418 4.03157107217 0.0
0.918722163621 4.03445624851 0.0
0.938298318157 4.03786122392 0.0
0.957777321244 4.04178358113 0.0
0.977145665218 4.04622060039 0.0
0.996389584817 4.0511691282 0.0
1.01549574 4.05662573401 0.0
1.03445056323 4.06258654322 0.0
1.05324089605 4.06904741762 0.0
1.07185341958 4.07600377808 0.0
1.09027517391 4.0834507802 0.0
1.10849315734 4.09138316882 0.0
1.12649462563 4.09979539439 0.0
1.1442669209 4.10868154222 0.0
1.16179756906 4.1180353746 0.0
1.1790742871 4.12785033813 0.0
1.1960849082 4.13811952024 0.0
1.21281755802 4.14883575334 0.0
1.22926039879 4.15999145532 0.0
1.24540200269 4.17157887342 0.0
1.26123091585 4.18358978512 0.0
1.27673615785 4.19601585877 0.0
1.29190671097 4.20884826442 0.0
1.30673206073 4.22207810803 0.0
1.32120167579 4.23569599189 0.0
1.33530551541 4.24969246611 0.0
1.34903357612 4.26405760374 0.0
1.36237630898 4.27878141198 0.0
1.3753242847 4.29385348652 0.0
1.38786845609 4.30926329506 0.0
1.05632730172 4.46025283906 0.0
0.549964048968 4.4630053958 0.0
0.806135520676 4.31186690218 0.0
0.603895783049 4.26079310371 0.0
1.22984770884 4.38318704125 0.0
0.3703382852 4.38423552752 0.0
0.995322815839 4.25565031136 0.0
0.728315816804 4.1765935937 0.0
0.872128173905 4.17288724072 0.0
1.14059401893 4.27298468684 0.0
0.461553191009 4.27181671009 0.0
0.784706775856 4.56821390922 0.0
0.398287125272 4.57945970538 0.0
1.20625306554 4.58334743514 0.0
0.624100842742 4.1589824436 0.0
0.5257453845 4.18811776279 0.0
0.978502430793 4.15488737058 0.0
1.07419209812 4.18825154482 0.0
0.364313698077 4.28677035763 0.0
1.23509538257 4.28681716733 0.0
0.68124123937 4.39284548972 0.0
1.31679378691 4.35012066749 0.0
0.283206213094 4.35012066749 0.0
0.791498533126 4.11467141721 0.0
0.931481076052 4.3801344917 0.0
0.966719065571 4.62778042839 0.0
0.684451667517 4.11068036752 0.0
0.618335406951 4.62686910993 0.0
0.450982331762 4.19686171732 0.0
0.915674266355 4.10995633851 0.0
1.14900051594 4.19689012964 0.0
1.30193709687 4.4481448133 0.0
0.298574667609 4.44816296922 0.0
1.05734787542 4.34990107617 0.0
0.539273225177 4.35252599628 0.0
0.709896798149 4.27721026287 0.0
0.895708916005 4.26924194389 0.0
0.813273511364 4.43835766235 0.0
0.559289631452 4.13230879113 0.0
1.04001407307 4.13281539633 0.0
0.801161810585 4.23146244955 0.0
0.665113819616 4.52056650186 0.0
0.852577362173 4.09111846388 0.0
0.390256727869 4.2242806298 0.0
1.20974450479 4.22428104599 0.0
0.921542541183 4.52778058719 0.0
1.14030889032 4.36437344809 0.0
1.15600477272 4.46808538305 0.0
0.435243219029 4.4750581257 0.0
0.462045157798 4.36654654286 0.0
0.735806812738 4.08472269746 0.0
1.30082934537 4.29793772796 0.0
0.299170654625 4.29793772796 0.0
0.533651712118 4.26265983853 0.0
0.666130919144 4.21652131559 0.0
1.0676097303 4.26179469382 0.0
1.08054433577 4.58530946155 0.0
0.506773767255 4.56568295079 0.0
0.626745312844 4.10124420826 0.0
0.933845304214 4.2106954732 0.0
0.293717639664 4.55175000185 0.0
0.312505022079 4.66426411351 0.0
1.3058164124 4.55154930624 0.0
1.29054387065 4.66302765963 0.0
0.973467966326 4.09941619478 0.0
0.487935413164 4.15087084015 0.0
0.461549079751 4.68836834982 0.0
1.11203248746 4.15093503889 0.0
1.14453515393 4.70617370303 0.0
0.840217564202 4.68891146633 0.0
0.585347033288 4.20539048534 0.0
0.619177396637 4.34227576306 0.0
0.331644410315 4.24962190462 0.0
1.26835558968 4.24962190462 0.0
1.01536156978 4.19987473052 0.0
0.809331033562 4.07065709122 0.0
0.982321540791 4.33437358971 0.0
0.725600576914 4.66999651799 0.0
0.812291456186 4.16642942492 0.0
0.335887692543 4.33918235669 0.0
1.26344844681 4.34017131907 0.0
1.23449730504 4.49457441524 0.0
1.34334172095 4.40539551957 0.0
0.256658279045 4.40539551957 0.0
0.741646926828 4.34287908527 0.0
0.674799084703 4.16673768522 0.0
1.18647435526 4.30955189749 0.0
0.360563250283 4.49596479569 0.0
0.873716483853 4.33845499203 0.0
0.418704489949 4.31146264283 0.0
0.492670911224 4.22931614809 0.0
0.403480880356 4.19046776931 0.0
1.19651541215 4.1904686246 0.0
0.728649253738 4.46214546491 0.0
1.00883674467 4.40174664879 0.0
1.11035034557 4.23161841276 0.0
0.261968539765 4.3130079512 0.0
1.33803146023 4.3130079512 0.0
0.74649980488 4.1318354354 0.0
0.927597725248 4.1577597079 0.0
0.892956618256 4.07619338913 0.0
0.659794281787 4.07951387326 0.0
0.587663534405 4.09486537006 0.0
0.942353209926 4.07935300973 0.0
1.01493747319 4.09476013719 0.0
0.613130017774 4.41369803882 0.0
0.449373501074 4.15377191978 0.0
0.514840228377 4.12225850006 0.0
0.497057592 4.41333092106 0.0
1.15061382426 4.15379293084 0.0
1.08514419473 4.12228328152 0.0
0.745617635771 4.23098957592 0.0
0.87523452213 4.59853036549 0.0
0.855262884783 4.2258970831 0.0
1.01126200032 4.53280064162 0.0
1.09391916408 4.40632408872 0.0
1.04436265455 4.71482000827 0.0
0.314320181089 4.38773968607 0.0
1.28649331902 4.38743720145 0.0
0.771211579291 4.06316862024 0.0
0.432259099658 4.24006002157 0.0
0.698583889427 4.07144353526 0.0
1.16802128371 4.238862881 0.0
1.09587629216 4.3086676659 0.0
1.35920470355 4.35666960471 0.0
0.240795296449 4.35666960471 0.0
0.504003580654 4.30815758118 0.0
0.579942709371 4.5342075073 0.0
0.875915224914 4.12815792528 0.0
0.426503136644 4.40717733008 0.0
0.57541416445 4.30365301522 0.0
0.683877978289 4.33161848113 0.0
0.888061695889 4.44633509246 0.0
0.26012287522 4.49859249103 0.0
1.33987712478 4.49859249103 0.0
0.801393572636 4.37060096582 0.0
0.558460082533 4.72496728209 0.0
1.1741923373 4.41132830101 0.0
0.83220012886 4.12779415912 0.0
1.02815069622 4.30053276509 0.0
0.948308583502 4.2880204454 0.0
0.846588933095 4.50834596945 0.0
0.343666800815 4.43485820652 0.0
1.25632767671 4.43480360053 0.0
0.97849585731 4.47031535602 0.0
1.10170977548 4.51507265998 0.0
0.662193131828 4.26809398492 0.0
0.400503668388 4.26881657105 0.0
1.20117145985 4.26130427377 0.0
0.350957892513 4.21796558019 0.0
1.24904210749 4.21796558019 0.0
0.771964652188 4.18905379403 0.0
0.932165148285 4.72736281402 0.0
0.373672364094 4.73321357765 0.0
0.760245937722 4.28409350779 0.0
0.848718469252 4.05767763075 0.0
1.23385612561 4.7358294747 0.0
0.846421485813 4.28065918421 0.0
0.651597058631 4.13043284014 0.0
0.650489852552 4.72138045504 0.0
0.58457834847 4.16375088261 0.0
0.48701309933 4.18859927013 0.0
0.708495738406 4.58856947756 0.0
1.11203398596 4.18878062515 0.0
0.54865558244 4.10250047869 0.0
1.05126102377 4.10234629471 0.0
0.300013757486 4.26259646442 0.0
1.29998624251 4.26259646442 0.0
0.9465032388 4.12718070354 0.0
0.708587583337 4.14146095907 0.0
0.973348904468 4.19537871864 0.0
0.628721855632 4.19538356945 0.0
0.380175010018 4.34021880077 0.0
0.662092932411 4.45899041267 0.0
1.05133526787 4.22221992007 0.0
0.528087045766 4.64327882187 0.0
1.22233124543 4.33521693908 0.0
1.19001193434 4.36273586668 0.0
0.853024099244 4.39544003492 0.0
0.542800296246 4.22324366905 0.0
0.247706318737 4.45239119247 0.0
1.35229368126 4.45239119247 0.0
0.599153768578 4.12953797005 0.0
1.01616570494 4.16227683178 0.0
0.744705786938 4.40569544575 0.0
1.31929001115 4.73702550052 0.0
0.777615355331 4.15113602511 0.0
1.33132411895 4.60631378639 0.0
0.265621610877 4.60975488866 0.0
0.532023338888 4.15374454388 0.0
1.0697792195 4.15241429251 0.0
0.286371037106 4.73010312914 0.0
0.497725885905 4.50153668256 0.0
0.46053455822 4.31587947599 0.0
0.433799237968 4.54629400991 0.0
0.388624781906 4.65094200004 0.0
0.554823673752 4.40451940232 0.0
1.1421595646 4.31818301431 0.0
1.14760043966 4.61655103139 0.0
1.21258698805 4.65320200685 0.0
1.16279096046 4.53292621409 0.0
0.995762647814 4.12508772517 0.0
0.456229040627 4.61456685246 0.0
0.707289391156 4.21520271873 0.0
0.763036833302 4.74285445535 0.0
0.78386198569 4.49787013126 0.0
[...]
POINT_DATA 999
VECTORS Displacement float
-0.00180916764207 -0.141859311902 0
0.00179623971876 -0.14186817163 0
0.0 -0.144 0
0.0 -0.144 0
0.00192270596472 -0.141858008476 0
0.00204539842084 -0.141843488997 0
0.00215536971374 -0.141825383652 0
0.00224782215934 -0.14181442829 0
0.00230150317035 -0.141816546432 0
0.00233203507023 -0.141837977507 0
0.00230398786335 -0.141884149231 0
0.00221207141518 -0.141961371423 0
0.00204649609279 -0.142095120394 0
0.00177620601624 -0.142301554668 0
0.00138871593867 -0.142621506112 0
0.000835417660565 -0.14311919596 0
0.0 -0.144 0
0.0 -0.144 0
0.0 -0.144 0
0.0 -0.144 0
0.0 -0.144 0
0.0 -0.144 0
0.0 -0.144 0
0.0 -0.144 0
0.0 -0.144 0
0.0 -0.144 0
0.0 -0.144 0
0.0 -0.144 0
0.0 -0.144 0
0.0 -0.144 0
0.0 -0.144 0
0.0 -0.144 0
0.0 -0.144 0
-0.00083117108438 -0.143122393924 0
-0.00138519903177 -0.142623865634 0
-0.00179034846231 -0.142300512922 0
-0.00205300152553 -0.142089651556 0
-0.00221777766034 -0.141953929063 0
-0.00231179069189 -0.141875783507 0
-0.00234107881585 -0.14182987519 0
-0.00231129546109 -0.141808376154 0
-0.00225829044525 -0.14180609275 0
-0.00216650887777 -0.141816846137 0
-0.00205719674323 -0.141834782655 0
-0.00193511403733 -0.141849195405 0
-0.00170546118722 -0.141792881828 0
-0.00159151025494 -0.1417197043 0
-0.00146813261829 -0.141634834131 0
-0.00133309742839 -0.141538273712 0
-0.00118736835194 -0.141426073897 0
-0.00103482956111 -0.141295570903 0
-0.000873940745629 -0.141148801313 0
-0.0006987784679 -0.140983902264 0
-0.000512510586307 -0.140788839896 0
-0.000323234411551 -0.140578539921 0
-0.000122663723631 -0.140339240699 0
9.44334107902e-05 -0.140070806944 0
0.000316701760334 -0.139763681186 0
0.000553127497315 -0.139420104516 0
0.000801187378222 -0.139031922906 0
0.00107308085443 -0.138580942598 0
0.00135201121669 -0.138051358865 0
0.00167468560904 -0.137377257812 0
0.00197354628448 -0.136567763189 0
0.00222269516052 -0.135696438177 0
0.00239035073317 -0.134864395686 0
0.00248308722243 -0.134057127649 0
0.00252014809984 -0.133305933447 0
0.00249874741731 -0.132589735055 0
0.00243236589189 -0.131932167364 0
0.00231210769576 -0.131321800543 0
0.00215959791081 -0.130773042565 0
0.00196684229521 -0.130281595669 0
0.00175287988719 -0.129858846344 0
0.00150301686738 -0.129488801864 0
0.00123569823221 -0.129189127585 0
0.00094085854187 -0.128946760473 0
0.000638971075518 -0.12876898525 0
0.000324105735671 -0.128654935454 0
-2.5991104241e-05 -0.128597819897 0
-0.000356184531166 -0.128659885256 0
-0.000672500201687 -0.128773088267 0
-0.000974469969261 -0.128945802506 0
-0.00126104431346 -0.129187178515 0
-0.00152885461883 -0.129490954077 0
-0.00177881148791 -0.129860200047 0
-0.00200224497271 -0.130294394709 0
-0.00218371133454 -0.130777609338 0
-0.0023345105002 -0.131324726022 0
-0.00245431680403 -0.131933919209 0
-0.00252143905908 -0.132591282731 0
-0.00254299979754 -0.133307172096 0
-0.00250684832027 -0.134060951528 0
-0.00241274140336 -0.134868241579 0
-0.00224432242373 -0.135700483727 0
-0.00199412338993 -0.136572783424 0
-0.00169469504047 -0.137382372251 0
-0.00137190497788 -0.138056095155 0
-0.00109286775638 -0.138585772541 0
-0.000820674810823 -0.139037131531 0
-0.000572168199699 -0.139425730948 0
-0.000335241906172 -0.139769671031 0
-0.000112479831484 -0.140077157814 0
0.00010514203833 -0.140345945253 0
0.000306251868138 -0.140585555751 0
0.000496071436659 -0.140796120425 0
0.000682827831907 -0.140991380786 0
0.000858424688724 -0.141156414447 0
0.00101970410464 -0.141303325399 0
0.00117263615454 -0.141433973977 0
0.0013187204544 -0.141546309331 0
0.00145409832186 -0.141643032023 0
0.00157782557513 -0.141728094342 0
0.00169214426207 -0.141801490577 0
0.00163579580017 -0.13956123665 0
-0.00161000283902 -0.139540512743 0
3.2628342545e-05 -0.13503596725 0
-0.000988846677621 -0.135654941087 0
0.0020594571057 -0.140641430777 0
-0.00207107416475 -0.140639324498 0
0.000943020339631 -0.135548216418 0
-7.90746957557e-05 -0.13219479287 0
3.9691186146e-05 -0.132119196838 0
0.00142174557416 -0.138667338395 0
-0.00142560193503 -0.138610094605 0
-9.42906974957e-05 -0.140178772637 0
-0.00180528406222 -0.141870047465 0
0.00179054952526 -0.141926154168 0
3.694607976e-05 -0.133342561562 0
-0.000478438149304 -0.136295872486 0
-0.000117704558538 -0.133327698626 0
0.000464763557091 -0.136295487224 0
-0.00155123228232 -0.140320926656 0
0.00153702158467 -0.140317976155 0
-0.000876373042033 -0.13723705611 0
0.00195608507911 -0.141324625406 0
-0.00196804583729 -0.141317499049 0
2.81097173501e-05 -0.130487293009 0
0.000946099317029 -0.137090665301 0
0.000819746018098 -0.141448510492 0
0.000561742049582 -0.131271298758 0
-0.000895176103952 -0.141481454283 0
-0.000599552233936 -0.138391364229 0
-0.000594145324811 -0.131259259647 0
0.00058427340743 -0.138396237806 0
0.00224895142911 -0.141491822818 0
-0.00225740304623 -0.141483902064 0
0.00158484078684 -0.138058885041 0
-0.00161528134325 -0.138140393136 0
-0.00053201513505 -0.134616002938 0
0.000524580676879 -0.134492838974 0
9.68710599223e-05 -0.13774139918 0
0.000549102051694 -0.13452976374 0
-0.000557261301801 -0.134518238633 0
-4.27538903787e-06 -0.133183552547 0
-0.000897488334884 -0.139643441564 0
-0.000394415955815 -0.130158533521 0
-0.000924832333856 -0.13976686869 0
0.000908761043777 -0.139773502032 0
0.00079792665999 -0.139707568685 0
0.00187284180325 -0.13942541932 0
0.00198229119079 -0.140569631994 0
-0.00201240048089 -0.140703806922 0
-0.00188251798374 -0.139406143544 0
0.000500357098645 -0.130114414682 0
0.00161325633928 -0.141116650259 0
-0.00162677378979 -0.141109450293 0
-0.00124165816803 -0.137041942297 0
-0.000462211011861 -0.133787156578 0
0.00122214877269 -0.137059158332 0
0.00142340884611 -0.141345484603 0
-0.00154599987177 -0.141174926672 0
0.0010091876577 -0.132179513612 0
0.000403532279258 -0.133665214878 0
-0.00212050248504 -0.141992675299 0
-0.00147171624562 -0.142732058684 0
0.00211587542271 -0.141996514958 0
0.00148597290401 -0.14272567544 0
-0.00106570253519 -0.132155444686 0
0.000175303854932 -0.13708557461 0
-0.00105376367659 -0.14269970222 0
-0.000193416117265 -0.137089205205 0
0.000949601235232 -0.142895636539 0
0.000158908944956 -0.142147947495 0
-0.000600479453478 -0.135049551796 0
-0.00121577777989 -0.136891396706 0
-0.00118776978913 -0.140695130898 0
0.00117287290219 -0.140702130153 0
0.000521751593089 -0.134972419963 0
-0.000106082389457 -0.129530590846 0
0.00119185990636 -0.13677513774 0
-0.000323216281398 -0.141892270237 0
-9.17547405559e-06 -0.131676611821 0
-0.00190681197336 -0.140814524201 0
0.00189934677384 -0.140816745729 0
0.00213039686504 -0.141367487602 0
0.00219393852584 -0.141585401768 0
-0.00220450851768 -0.141578390388 0
-0.000423001964809 -0.135852612389 0
-4.06810584954e-05 -0.132596776308 0
0.00169903351473 -0.139694940027 0
-0.00214991679006 -0.141400375469 0
0.000515268084022 -0.135836052369 0
-0.00172105359625 -0.139622905639 0
-0.0010232500956 -0.13758536692 0
-0.000453121730711 -0.139457364426 0
0.000435954775125 -0.139462631593 0
-0.000522269480646 -0.138333268957 0
0.00142243437695 -0.138218795913 0
0.00103227275785 -0.137683473029 0
-0.00173470666552 -0.141448346041 0
0.00172146517633 -0.141455986719 0
0.000143593820826 -0.131049642555 0
-6.6510429634e-05 -0.132442363994 0
-0.000856503167039 -0.130252169531 0
0.0011974503282 -0.131068876937 0
0.00137434625963 -0.133078974278 0
-0.00123927240158 -0.131115456492 0
-0.00141173573478 -0.133157392389 0
-0.00131095051599 -0.138193964645 0
0.000167917184212 -0.138294058089 0
0.000854096462743 -0.135886693147 0
-0.00184980555117 -0.139452127431 0
-0.000186618665632 -0.138298368156 0
-0.000873447987973 -0.135890719803 0
-0.000232674242443 -0.133325520944 0
0.000425448052861 -0.140760116797 0
0.000206429346447 -0.13321441916 0
0.0012831469031 -0.140257013357 0
0.00180216935281 -0.139266788175 0
0.000711589445101 -0.142793190964 0
-0.00212304417128 -0.14116418328 0
0.00211187602682 -0.141175757447 0
0.000293409276163 -0.12943131888 0
-0.00113735300913 -0.139008282241 0
0.000972302038135 -0.130268870955 0
0.00110758843488 -0.139012886963 0
0.00156713689259 -0.138162988902 0
0.00199402851103 -0.141620688533 0
-0.00200604135138 -0.141612871955 0
-0.00157844755562 -0.138157495549 0
-0.00132640420452 -0.140331230777 0
-0.000254201181947 -0.131152671571 0
-0.00203709169942 -0.140195619435 0
-0.00131995370479 -0.136861965258 0
-0.000803446625996 -0.135996389328 0
0.000645485674471 -0.138091858208 0
-0.00228565448395 -0.141807984488 0
0.00227619615417 -0.141814700299 0
5.22678146332e-06 -0.136326487943 0
-0.000649915468724 -0.142901497607 0
0.00202987994214 -0.140243988799 0
-0.000117382519266 -0.130840396625 0
0.00130845798324 -0.136872985761 0
0.000870383698714 -0.135459550537 0
0.000323546532539 -0.139135472481 0
-0.00219676833303 -0.141138730962 0
0.0021875921816 -0.141143336965 0
0.00121675785091 -0.139067004137 0
0.00172034167111 -0.140631062592 0
-0.000755152246827 -0.134920097 0
-0.00140693527076 -0.139711457262 0
0.00132194361146 -0.139719821787 0
-0.000820278443514 -0.140404956948 0
0.000804481546112 -0.140411693998 0
-5.99797113906e-05 -0.132235626612 0
0.000380713038258 -0.142780721274 0
-0.000835224836077 -0.143256494909 0
-0.000247745213894 -0.134478009112 0
-0.000576988148637 -0.12944110766 0
0.000815414708387 -0.143284894422 0
0.000267409410372 -0.134426446246 0
0.000412942814196 -0.132226352262 0
-0.000448809733268 -0.142724253018 0
-5.07058453035e-05 -0.13434685635 0
-0.000500400615557 -0.137388635611 0
-0.000528777555417 -0.140633528514 0
0.00048958054771 -0.137367923606 0
0.0013573598921 -0.134431154683 0
-0.00138119226914 -0.134429685346 0
-0.0013155029124 -0.141078468856 0
0.00130106908716 -0.141085817947 0
-0.000478872024732 -0.132133652109 0
0.000166733278846 -0.131610136555 0
0.000376373859569 -0.134010651646 0
-0.000389322629911 -0.13396798244 0
-0.0018947364305 -0.140310137694 0
-0.000981642010197 -0.13859469794 0
0.000844210358055 -0.136156886573 0
-0.00115145969583 -0.142006472666 0
0.00185954779635 -0.140322806525 0
0.00194939635067 -0.140066798002 0
0.000393219870856 -0.136944045609 0
-0.000885697336032 -0.136313392026 0
-0.00230191975115 -0.141706937517 0
0.00229226473856 -0.141713642057 0
0.000545191516862 -0.133371606331 0
8.22093341996e-06 -0.13434104254 0
-0.000419622779591 -0.137160447403 0
0.000885606984353 -0.143272230664 0
1.34475680929e-05 -0.131339411978 0
0.00191971893981 -0.142309461064 0
-0.00191199323337 -0.142324689863 0
0.00010597257704 -0.135679387374 0
-0.000150914042617 -0.135723667661 0
-0.000938131506517 -0.143225923434 0
-0.00176205689667 -0.140473897538 0
-0.00169942932564 -0.13897967187 0
-0.00184790448497 -0.141390843687 0
-0.00143283240452 -0.142528479376 0
-0.00161289732866 -0.138668310615 0
0.001702949615 -0.139048029654 0
0.00149005063841 -0.142002117805 0
0.00141770589635 -0.142551915811 0
0.00187431757725 -0.141242370244 0
-0.000640876922252 -0.13315903089 0
-0.00149195981266 -0.141964566652 0
-0.000317730502276 -0.133264642864 0
-9.83368564056e-05 -0.142927079179 0
-0.000115630152632 -0.138906035196 0
0.000849851107065 -0.136114457461 0
3.31505959831e-05 -0.1390596603 0
0.000273780656426 -0.133159200548 0
-5.12738548195e-05 -0.139064811794 0
0.0022134749961 -0.14164892513 0
0.00072598858325 -0.129642563985 0
-0.00151822249014 -0.140770391374 0
0.0015043125441 -0.140777190263 0
-0.00049985630813 -0.140035542819 0
0.000483034010834 -0.140041818266 0
-0.00129387277331 -0.139264807329 0
-0.00198290253873 -0.140084568888 0
0.000221161697294 -0.13010698626 0
-0.0005667775822 -0.139729714575 0
-0.00123528141726 -0.140232015361 0
0.00122063211715 -0.140237128964 0
-0.00221883964929 -0.141619305586 0
0.00211757510224 -0.140875314849 0
0.000703328766453 -0.134685644419 0
-0.0015112247706 -0.141354574437 0
0.00149731079219 -0.141362218129 0
0.00104857659503 -0.142268660327 0
-0.00211784560501 -0.140861399585 0
-0.00185713896781 -0.141638825438 0
0.00184440683781 -0.14164688519 0
0.00154923899334 -0.131896949909 0
8.25899011044e-05 -0.132486948835 0
0.00182134679214 -0.14225051367 0
-0.0018323517771 -0.142245722827 0
-0.00132654808645 -0.137832602748 0
0.00045343346612 -0.13082343154 0
7.55702775386e-06 -0.133908122286 0
-0.000151815330786 -0.130168877556 0
0.00174771541078 -0.138759099408 0
0.00132171282383 -0.137869553345 0
-0.00104071445947 -0.135966405427 0
-0.00125333314615 -0.130318700635 0
-0.00153575300981 -0.131925598758 0
0.00184636766929 -0.140121194451 0
-0.0018733598556 -0.141110887756 0
0.00186123258548 -0.141117135679 0
0.000859328487922 -0.140528454742 0
-0.00176340538268 -0.138773287558 0
-0.00104968850882 -0.136051388259 0
0.000220566699591 -0.135232554073 0
-0.00094672200763 -0.140516387625 0
-9.1417180702e-05 -0.141485798177 0
0.000666688060564 -0.137334157124 0
-0.000685595041303 -0.137338282266 0
-0.00105682671291 -0.138342639144 0
0.000993594521213 -0.138342207988 0
-0.00221053230153 -0.141979810275 0
0.00220412216893 -0.141985329005 0
-0.000767845201733 -0.134893086957 0
0.0010580531327 -0.136172203772 0
-0.000342137126413 -0.135412128882 0
0.00113041674514 -0.141285258498 0
-0.000851796020266 -0.129682243081 0
0.000997359497852 -0.138188946913 0
0.00211976247462 -0.141687892308 0
-0.0021310520956 -0.141680059992 0
-0.000699746938342 -0.13905660029 0
-0.000515026564342 -0.130627381033 0
0.000683205554249 -0.139061323062 0
-0.000528605395303 -0.134077673947 0
0.00047087698146 -0.141802055093 0
0.000547221029813 -0.143331128347 0
0.00162830639507 -0.138672019994 0
-0.00145657278526 -0.137744060369 0
0.00212036467224 -0.141384211358 0
-0.00213118564888 -0.141377690904 0
0.00202082244329 -0.141807947468 0
-0.0020354325792 -0.141783713108 0
-0.000240250454887 -0.131710018446 0
0.00151721582871 -0.139287690273 0
0.00138573776261 -0.130397349801 0
6.04911749815e-05 -0.129093833457 0
-3.50835680367e-05 -0.131576169531 0
-0.00196822597643 -0.140116475044 0
-0.0015185769352 -0.139376307658 0
-0.00090975433014 -0.140731410988 0
0.00089424323644 -0.140738510809 0
0.00023966933403 -0.135919968939 0
0.000468858900502 -0.133893952663 0
-0.000337833564297 -0.129238847166 0
0.00148133566816 -0.142744717942 0
-0.00176293211292 -0.140639613164 0
0.00174090197273 -0.140647222809 0
0.00136203433563 -0.137430769419 0
-0.00160351546817 -0.142634291676 0
-0.000516324668881 -0.143372169996 0
0.00193466491233 -0.139729026126 0
-0.00124112354982 -0.14138421087 0
-0.000124504827494 -0.133188345733 0
0.00120481382201 -0.137359251407 0
0.00141834417044 -0.137431913463 0
0.000651344820163 -0.134804082189 0
0.00110929877017 -0.136137259568 0
-0.00112987141655 -0.137362002376 0
-0.00201484188505 -0.141248369747 0
0.000819445773225 -0.131690662124 0
0.000498211744137 -0.13284043504 0
-0.00200658482797 -0.141092856491 0
0.00199440896336 -0.14110728264 0
-0.00108218553383 -0.140970528108 0
0.00106707484617 -0.14097787922 0
9.87342838996e-05 -0.132546541138 0
0.0016086245599 -0.139996361504 0
0.00154412184058 -0.140270371928 0
0.000112870820717 -0.133205963627 0
-0.00144524023535 -0.137462362902 0
-0.000440989640778 -0.135001548876 0
-0.00174707944226 -0.140101167724 0
-0.00188608827479 -0.141489044164 0
0.00187350270998 -0.141496672775 0
0.000163594427255 -0.1430453341 0
-0.000147946465742 -0.13649129587 0
-0.000160388448194 -0.137719979771 0
-0.00193954023005 -0.139714303671 0
0.000477590288471 -0.134984408438 0
-0.000875543598728 -0.1316848521 0
-0.00180509143408 -0.139876420923 0
0.000830875169267 -0.136792840718 0
0.000558248265463 -0.143456974547 0
0.00178428897658 -0.133711462232 0
0.000147504943013 -0.137727470579 0
-0.000556526194845 -0.141693239539 0
1.89147615135e-05 -0.131570682222 0
0.000186415863879 -0.136572975567 0
-0.000149438373223 -0.133748784244 0
0.00153951120414 -0.135162441423 0
-0.00184281506981 -0.133720491625 0
-0.000818721008118 -0.136797410669 0
-0.00156051239467 -0.135165149496 0
-1.65281557436e-05 -0.131053398681 0
0.000149836121946 -0.133707336424 0
9.90001847214e-05 -0.129763088603 0
0.00225216955294 -0.141710192919 0
-0.00226241670053 -0.141702804488 0
0.00188208534826 -0.132350678208 0
0.00172343398651 -0.13126324806 0
-0.000186057171469 -0.143270317349 0
-0.00173316075318 -0.131261950991 0
-0.00189750945537 -0.132382955879 0
0.00116435251254 -0.136777674958 0
0.000727787091938 -0.138035021668 0
-0.000166724919264 -0.132681383802 0
-0.0011837452734 -0.136782189666 0
-0.000747156575083 -0.138039378941 0
0.00205264792054 -0.141059605477 0
0.000944794637343 -0.141978640755 0
-0.000153058144088 -0.135717749579 0
0.000616080679944 -0.129227493195 0
-0.000895399612884 -0.130732805542 0
0.00107213031954 -0.129660241983 0
0.00025730497493 -0.13190535622 0
0.00195950120098 -0.140599905461 0
0.00211470554766 -0.141543513145 0
-0.00212590295309 -0.141536274879 0
-0.00156270640373 -0.140227062375 0
0.00220131870031 -0.141370127219 0
-0.00221139628181 -0.141364059322 0
0.0002370356524 -0.140071934771 0
-0.000828542884358 -0.135320419005 0
0.000340980560707 -0.143262963446 0
-0.000325576523151 -0.129795592922 0
0.000621606373417 -0.136767266235 0
-0.000100433992683 -0.139714345892 0
8.2644654502e-05 -0.139720241512 0
-0.00205221980635 -0.140882277457 0
0.000720797858452 -0.135322274584 0
-0.000785312639194 -0.133755893443 0
-0.000251472099145 -0.134077231385 0
0.00164191337669 -0.141462102644 0
-0.000151500809153 -0.132648488347 0
-0.000750109830508 -0.135271192776 0
0.000911031554092 -0.130833011909 0
4.58660326921e-06 -0.132344351891 0
-0.00211623724712 -0.140656219643 0
-0.000691055255899 -0.137664779949 0
-0.00022944812594 -0.130794442844 0
-0.000237185381812 -0.13792374133 0
-0.000700500011694 -0.136450818376 0
0.000811197922175 -0.135027450161 0
-0.000330839018572 -0.138927995809 0
0.000313762653407 -0.138933046234 0
-0.000828856219235 -0.135029400395 0
0.000246625662732 -0.135166936917 0
0.000282399532734 -0.130493477831 0
0.000994330103424 -0.133944980753 0
0.00222107705244 -0.141405817282 0
-0.00222846882285 -0.141386479147 0
-0.000507855384246 -0.143500276492 0
0.000199994836231 -0.13410120072 0
0.00210396944554 -0.140648062888 0
0.000128444226338 -0.130583274833 0
-0.00119965844756 -0.129869869117 0
-0.00183279575338 -0.141307089314 0
0.00181984820816 -0.141314327466 0
-0.00162667674749 -0.141572975486 0
0.00161309078436 -0.141580984773 0
-0.000575457959491 -0.130162800281 0
-0.00187817931918 -0.139706333593 0
0.000918447880294 -0.132861823758 0
0.00198506666031 -0.141595936983 0
0.000835077460798 -0.135626304781 0
-0.000628535247153 -0.132491424243 0
0.00204077966296 -0.140889857042 0
-0.00193390471068 -0.141718333069 0
0.00192151582885 -0.141726604082 0
0.000511842097436 -0.139826552351 0
0.00142557260876 -0.138953985713 0
0.000317121022331 -0.136247192144 0
-0.00171170786889 -0.140901995097 0
0.0016985443608 -0.140908336996 0
-0.00116818201874 -0.13950901584 0
-9.8782647143e-05 -0.132886147372 0
0.00112775457441 -0.139532291637 0
0.00068676992691 -0.134735784061 0
0.000467093023006 -0.129688038382 0
-0.00174148782046 -0.138807335841 0
-0.000328981981656 -0.13627338965 0
-0.000730211902386 -0.139473481456 0
0.000713501817951 -0.139478370611 0
0.00110594255547 -0.139834562812 0
-0.00122930448728 -0.138146286995 0
-0.000540651643097 -0.143563785294 0
-0.00130242041101 -0.141274686734 0
0.00128794508585 -0.141282331051 0
0.000624391638237 -0.130395361987 0
0.000347571129001 -0.138797475147 0
-0.000366527472417 -0.138802280178 0
-0.000342264054699 -0.134087234218 0
-0.000252496476382 -0.133159537373 0
-0.000414214885091 -0.143159042723 0
-0.000779454582165 -0.137937070004 0
-0.000755104809083 -0.138925764872 0
0.00184054278818 -0.139586021891 0
0.000358601491331 -0.13832501494 0
0.000764713295862 -0.137979638219 0
0.000339269320948 -0.134009281703 0
0.00225263013852 -0.141577384034 0
-0.00226239325078 -0.141571061476 0
-0.00111110482001 -0.137127797745 0
-0.00138332998522 -0.140518136796 0
0.00136754587921 -0.140519385617 0
0.00153293065325 -0.138418414291 0
-0.00107152052213 -0.140442882206 0
0.00104673951595 -0.140442281511 0
-0.00231839879299 -0.141785054195 0