# vtk DataFile Version 2.0
Generated with Solid Solver
ASCII
DATASET UNSTRUCTURED_GRID
POINTS 999 float 
0.2 4.325 0.0
1.4 4.325 0.0
1.4 4.825 0.0
0.2 4.825 0.0
1.4 4.34523264049 0.0
1.4 4.36751203886 0.0
1.4 4.39204525371 0.0
1.4 4.4190602782 0.0
1.4 4.44880817466 0.0
1.4 4.48156541084 0.0
1.4 4.51763640748 0.0
1.4 4.5573564007 0.0
1.4 4.60109451608 0.0
1.4 4.64925723872 0.0
1.4 4.70229217343 0.0
1.4 4.76069218095 0.0
1.33333333333 4.825 0.0
1.26666666667 4.825 0.0
1.2 4.825 0.0
1.13333333333 4.825 0.0
1.06666666667 4.825 0.0
1.0 4.825 0.0
0.933333333334 4.825 0.0
0.866666666668 4.825 0.0
0.800000000001 4.825 0.0
0.733333333334 4.825 0.0
0.666666666668 4.825 0.0
0.600000000001 4.825 0.0
0.533333333334 4.825 0.0
0.466666666667 4.825 0.0
0.4 4.825 0.0
0.333333333334 4.825 0.0
0.266666666667 4.825 0.0
0.2 4.76069218095 0.0
0.2 4.70229217343 0.0
0.2 4.64925723872 0.0
0.2 4.60109451608 0.0
0.2 4.5573564007 0.0
0.2 4.51763640748 0.0
0.2 4.48156541084 0.0
0.2 4.44880817466 0.0
0.2 4.4190602782 0.0
0.2 4.39204525371 0.0
0.2 4.36751203886 0.0
0.2 4.34523264049 0.0
0.212131543907 4.30926329506 0.0
0.224675715302 4.29385348652 0.0
0.23762369102 4.27878141198 0.0
0.250966423879 4.26405760374 0.0
0.264694484585 4.24969246611 0.0
0.278798324214 4.23569599189 0.0
0.293267939266 4.22207810803 0.0
0.308093289028 4.20884826442 0.0
0.323263842145 4.19601585877 0.0
0.338769084145 4.18358978512 0.0
0.354597997314 4.17157887342 0.0
0.37073960121 4.15999145532 0.0
0.387182441982 4.14883575334 0.0
0.403915091795 4.13811952025 0.0
0.420925712897 4.12785033813 0.0
0.438202430937 4.11803537461 0.0
0.455733079095 4.10868154223 0.0
0.473505374364 4.09979539439 0.0
0.491506842655 4.09138316882 0.0
0.509724826085 4.0834507802 0.0
0.528146580414 4.07600377808 0.0
0.546759103951 4.06904741762 0.0
0.56554943677 4.06258654322 0.0
0.584504260001 4.05662573401 0.0
0.60361041518 4.0511691282 0.0
0.622854334779 4.04622060039 0.0
0.642222678753 4.04178358113 0.0
0.661701681839 4.03786122392 0.0
0.681277836375 4.03445624851 0.0
0.700937245817 4.03157107217 0.0
0.720666255912 4.02920769845 0.0
0.740450894784 4.02736780161 0.0
0.76027736978 4.02605266363 0.0
0.780131702711 4.02526321235 0.0
0.799999999998 4.025 0.0
0.819868297285 4.02526321235 0.0
0.839722630216 4.02605266363 0.0
0.859549105212 4.02736780161 0.0
0.879333744085 4.02920769845 0.0
0.89906275418 4.03157107217 0.0
0.918722163621 4.03445624851 0.0
0.938298318157 4.03786122392 0.0
0.957777321244 4.04178358113 0.0
0.977145665218 4.04622060039 0.0
0.996389584817 4.0511691282 0.0
1.01549574 4.05662573401 0.0
1.03445056323 4.06258654322 0.0
1.05324089605 4.06904741762 0.0
1.07185341958 4.07600377808 0.0
1.09027517391 4.0834507802 0.0
1.10849315734 4.09138316882 0.0
1.12649462563 4.09979539439 0.0
1.1442669209 4.10868154222 0.0
1.16179756906 4.1180353746 0.0
1.1790742871 4.12785033813 0.0
1.1960849082 4.13811952024 0.0
1.21281755802 4.14883575334 0.0
1.22926039879 4.15999145532 0.0
1.24540200269 4.17157887342 0.0
1.26123091585 4.18358978512 0.0
1.27673615785 4.19601585877 0.0
1.29190671097 4.20884826442 0.0
1.30673206073 4.22207810803 0.0
1.32120167579 4.23569599189 0.0
1.33530551541 4.24969246611 0.0
1.34903357612 4.26405760374 0.0
1.36237630898 4.27878141198 0.0
1.3753242847 4.29385348652 0.0
1.38786845609 4.30926329506 0.0
1.05632730172 4.46025283906 0.0
0.549964048968 4.4630053958 0.0
0.806135520676 4.31186690218 0.0
0.603895783049 4.26079310371 0.0
1.22984770884 4.38318704125 0.0
0.3703382852 4.38423552752 0.0
0.995322815839 4.25565031136 0.0
0.728315816804 4.1765935937 0.0
0.872128173905 4.17288724072 0.0
1.14059401893 4.27298468684 0.0
0.461553191009 4.27181671009 0.0
0.784706775856 4.56821390922 0.0
0.398287125272 4.57945970538 0.0
1.20625306554 4.58334743514 0.0
0.624100842742 4.1589824436 0.0
0.5257453845 4.18811776279 0.0
0.978502430793 4.15488737058 0.0
1.07419209812 4.18825154482 0.0
0.364313698077 4.28677035763 0.0
1.23509538257 4.28681716733 0.0
0.68124123937 4.39284548972 0.0
1.31679378691 4.35012066749 0.0
0.283206213094 4.35012066749 0.0
0.791498533126 4.11467141721 0.0
0.931481076052 4.3801344917 0.0
0.966719065571 4.62778042839 0.0
0.684451667517 4.11068036752 0.0
0.618335406951 4.62686910993 0.0
0.450982331762 4.19686171732 0.0
0.915674266355 4.10995633851 0.0
1.14900051594 4.19689012964 0.0
1.30193709687 4.4481448133 0.0
0.298574667609 4.44816296922 0.0
1.05734787542 4.34990107617 0.0
0.539273225177 4.35252599628 0.0
0.709896798149 4.27721026287 0.0
0.895708916005 4.26924194389 0.0
0.813273511364 4.43835766235 0.0
0.559289631452 4.13230879113 0.0
1.04001407307 4.13281539633 0.0
0.801161810585 4.23146244955 0.0
0.665113819616 4.52056650186 0.0
0.852577362173 4.09111846388 0.0
0.390256727869 4.2242806298 0.0
1.20974450479 4.22428104599 0.0
0.921542541183 4.52778058719 0.0
1.14030889032 4.36437344809 0.0
1.15600477272 4.46808538305 0.0
0.435243219029 4.4750581257 0.0
0.462045157798 4.36654654286 0.0
0.735806812738 4.08472269746 0.0
1.30082934537 4.29793772796 0.0
0.299170654625 4.29793772796 0.0
0.533651712118 4.26265983853 0.0
0.666130919144 4.21652131559 0.0
1.0676097303 4.26179469382 0.0
1.08054433577 4.58530946155 0.0
0.506773767255 4.56568295079 0.0
0.626745312844 4.10124420826 0.0
0.933845304214 4.2106954732 0.0
0.293717639664 4.55175000185 0.0
0.312505022079 4.66426411351 0.0
1.3058164124 4.55154930624 0.0
1.29054387065 4.66302765963 0.0
0.973467966326 4.09941619478 0.0
0.487935413164 4.15087084015 0.0
0.461549079751 4.68836834982 0.0
1.11203248746 4.15093503889 0.0
1.14453515393 4.70617370303 0.0
0.840217564202 4.68891146633 0.0
0.585347033288 4.20539048534 0.0
0.619177396637 4.34227576306 0.0
0.331644410315 4.24962190462 0.0
1.26835558968 4.24962190462 0.0
1.01536156978 4.19987473052 0.0
0.809331033562 4.07065709122 0.0
0.982321540791 4.33437358971 0.0
0.725600576914 4.66999651799 0.0
0.812291456186 4.16642942492 0.0
0.335887692543 4.33918235669 0.0
1.26344844681 4.34017131907 0.0
1.23449730504 4.49457441524 0.0
1.34334172095 4.40539551957 0.0
0.256658279045 4.40539551957 0.0
0.741646926828 4.34287908527 0.0
0.674799084703 4.16673768522 0.0
1.18647435526 4.30955189749 0.0
0.360563250283 4.49596479569 0.0
0.873716483853 4.33845499203 0.0
0.418704489949 4.31146264283 0.0
0.492670911224 4.22931614809 0.0
0.403480880356 4.19046776931 0.0
1.19651541215 4.1904686246 0.0
0.728649253738 4.46214546491 0.0
1.00883674467 4.40174664879 0.0
1.11035034557 4.23161841276 0.0
0.261968539765 4.3130079512 0.0
1.33803146023 4.3130079512 0.0
0.74649980488 4.1318354354 0.0
0.927597725248 4.1577597079 0.0
0.892956618256 4.07619338913 0.0
0.659794281787 4.07951387326 0.0
0.587663534405 4.09486537006 0.0
0.942353209926 4.07935300973 0.0
1.01493747319 4.09476013719 0.0
0.613130017774 4.41369803882 0.0
0.449373501074 4.15377191978 0.0
0.514840228377 4.12225850006 0.0
0.497057592 4.41333092106 0.0
1.15061382426 4.15379293084 0.0
1.08514419473 4.12228328152 0.0
0.745617635771 4.23098957592 0.0
0.87523452213 4.59853036549 0.0
0.855262884783 4.2258970831 0.0
1.01126200032 4.53280064162 0.0
1.09391916408 4.40632408872 0.0
1.04436265455 4.71482000827 0.0
0.314320181089 4.38773968607 0.0
1.28649331902 4.38743720145 0.0
0.771211579291 4.06316862024 0.0
0.432259099658 4.24006002157 0.0
0.698583889427 4.07144353526 0.0
1.16802128371 4.238862881 0.0
1.09587629216 4.3086676659 0.0
1.35920470355 4.35666960471 0.0
0.240795296449 4.35666960471 0.0
0.504003580654 4.30815758118 0.0
0.579942709371 4.5342075073 0.0
0.875915224914 4.12815792528 0.0
0.426503136644 4.40717733008 0.0
0.57541416445 4.30365301522 0.0
0.683877978289 4.33161848113 0.0
0.888061695889 4.44633509246 0.0
0.26012287522 4.49859249103 0.0
1.33987712478 4.49859249103 0.0
0.801393572636 4.37060096582 0.0
0.558460082533 4.72496728209 0.0
1.1741923373 4.41132830101 0.0
0.83220012886 4.12779415912 0.0
1.02815069622 4.30053276509 0.0
0.948308583502 4.2880204454 0.0
0.846588933095 4.50834596945 0.0
0.343666800815 4.43485820652 0.0
1.25632767671 4.43480360053 0.0
0.97849585731 4.47031535602 0.0
1.10170977548 4.51507265998 0.0
0.662193131828 4.26809398492 0.0
0.400503668388 4.26881657105 0.0
1.20117145985 4.26130427377 0.0
0.350957892513 4.21796558019 0.0
1.24904210749 4.21796558019 0.0
0.771964652188 4.18905379403 0.0
0.932165148285 4.72736281402 0.0
0.373672364094 4.73321357765 0.0
0.760245937722 4.28409350779 0.0
0.848718469252 4.05767763075 0.0
1.23385612561 4.7358294747 0.0
0.846421485813 4.28065918421 0.0
0.651597058631 4.13043284014 0.0
0.650489852552 4.72138045504 0.0
0.58457834847 4.16375088261 0.0
0.48701309933 4.18859927013 0.0
0.708495738406 4.58856947756 0.0
1.11203398596 4.18878062515 0.0
0.54865558244 4.10250047869 0.0
1.05126102377 4.10234629471 0.0
0.300013757486 4.26259646442 0.0
1.29998624251 4.26259646442 0.0
0.9465032388 4.12718070354 0.0
0.708587583337 4.14146095907 0.0
0.973348904468 4.19537871864 0.0
0.628721855632 4.19538356945 0.0
0.380175010018 4.34021880077 0.0
0.662092932411 4.45899041267 0.0
1.05133526787 4.22221992007 0.0
0.528087045766 4.64327882187 0.0
1.22233124543 4.33521693908 0.0
1.19001193434 4.36273586668 0.0
0.853024099244 4.39544003492 0.0
0.542800296246 4.22324366905 0.0
0.247706318737 4.45239119247 0.0
1.35229368126 4.45239119247 0.0
0.599153768578 4.12953797005 0.0
1.01616570494 4.16227683178 0.0
0.744705786938 4.40569544575 0.0
1.31929001115 4.73702550052 0.0
0.777615355331 4.15113602511 0.0
1.33132411895 4.60631378639 0.0
0.265621610877 4.60975488866 0.0
0.532023338888 4.15374454388 0.0
1.0697792195 4.15241429251 0.0
0.286371037106 4.73010312914 0.0
0.497725885905 4.50153668256 0.0
0.46053455822 4.31587947599 0.0
0.433799237968 4.54629400991 0.0
0.388624781906 4.65094200004 0.0
0.554823673752 4.40451940232 0.0
1.1421595646 4.31818301431 0.0
1.14760043966 4.61655103139 0.0
1.21258698805 4.65320200685 0.0
1.16279096046 4.53292621409 0.0
0.995762647814 4.12508772517 0.0
0.456229040627 4.61456685246 0.0
0.707289391156 4.21520271873 0.0
0.763036833302 4.74285445535 0.0
0.78386198569 4.49787013126 0.0
[...]
POINT_DATA 999
VECTORS Displacement float
-0.000581308064548 -0.0714115650688 0
0.000572871337432 -0.0714173714327 0
0.0 -0.072 0
0.0 -0.072 0
0.000605023351002 -0.0714143726437 0
0.000636393402027 -0.0714098227262 0
0.000664372861539 -0.0714038708724 0
0.000687413196221 -0.0713992829295 0
0.000699567319445 -0.0713977716402 0
0.000704899930045 -0.071401088877 0
0.000693252232398 -0.0714108467713 0
0.000662831059394 -0.0714289781553 0
0.000610635530359 -0.0714630066931 0
0.000527641282413 -0.0715179891488 0
0.000410352257724 -0.0716060883579 0
0.000245078201856 -0.071746929744 0
0.0 -0.072 0
0.0 -0.072 0
0.0 -0.072 0
0.0 -0.072 0
0.0 -0.072 0
0.0 -0.072 0
0.0 -0.072 0
0.0 -0.072 0
0.0 -0.072 0
0.0 -0.072 0
0.0 -0.072 0
0.0 -0.072 0
0.0 -0.072 0
0.0 -0.072 0
0.0 -0.072 0
0.0 -0.072 0
0.0 -0.072 0
-0.000244536373092 -0.0717470045444 0
-0.000410611043976 -0.0716055500217 0
-0.000533426500664 -0.0715158899797 0
-0.000614647316181 -0.0714591949544 0
-0.000667030381843 -0.0714243494288 0
-0.000698441986505 -0.0714057603112 0
-0.000710779160738 -0.0713959225963 0
-0.000705962695266 -0.0713924570261 0
-0.000694279774239 -0.0713938185411 0
-0.000671683671424 -0.0713982679782 0
-0.000644124644144 -0.0714041148509 0
-0.00061313575682 -0.0714085973369 0
-0.000555153439781 -0.0713952891748 0
-0.000526363353117 -0.0713776080161 0
-0.000495050325831 -0.0713571277688 0
-0.000460688843106 -0.0713337827178 0
-0.000423588293273 -0.0713066129435 0
-0.000384677578893 -0.0712749433854 0
-0.000343694453828 -0.0712393638373 0
-0.000299240316262 -0.0711994002668 0
-0.000252273671156 -0.0711524415209 0
-0.00020459833696 -0.0711019656323 0
-0.000154386599496 -0.0710449516218 0
-0.000100870325825 -0.0709816960443 0
-4.64795709516e-05 -0.0709105133055 0
1.0416054501e-05 -0.0708323008965 0
6.91333703739e-05 -0.0707460099349 0
0.000130379013179 -0.0706501613231 0
0.000192380418398 -0.0705438008902 0
0.000258580011685 -0.0704264777997 0
0.000324754208924 -0.0702954915215 0
0.000395444730385 -0.0701484463426 0
0.000464845857431 -0.0699841454616 0
0.000542598744967 -0.0697978725826 0
0.000617405544796 -0.0695825347628 0
0.000702857287298 -0.0693279509792 0
0.000785001407738 -0.0690184334375 0
0.000872153699596 -0.0685688074229 0
0.000903827814443 -0.0681161466286 0
0.000884973328936 -0.0677004987807 0
0.00083238526023 -0.0673440186081 0
0.00074088327193 -0.0670264064147 0
0.000627297776664 -0.0667697955206 0
0.000484047145719 -0.0665625371504 0
0.000332626488136 -0.0664143303491 0
0.00017036847892 -0.066326952962 0
-1.48524898129e-05 -0.0662951066399 0
-0.000187721977021 -0.0663251754644 0
-0.000353995905794 -0.0664171574622 0
-0.000506467505813 -0.0665633935927 0
-0.000642822229621 -0.0667680029761 0
-0.000757238553581 -0.067027539082 0
-0.000852146133062 -0.0673446791742 0
-0.000910680806375 -0.0677132550006 0
-0.000918132630604 -0.0681227251005 0
-0.000886034575578 -0.0685693919981 0
-0.000800121606082 -0.0690201748657 0
-0.000718170901301 -0.0693314240056 0
-0.000632370745849 -0.0695862742068 0
-0.000556639437736 -0.0698006685941 0
-0.000478883374381 -0.0699867598991 0
-0.000409069928934 -0.0701514476369 0
-0.000338167129014 -0.0702986812959 0
-0.000271720064061 -0.0704298830552 0
-0.000205202600222 -0.0705473984266 0
-0.000142892216603 -0.0706539048899 0
-8.13589970148e-05 -0.0707498844765 0
-2.23658340722e-05 -0.0708363006358 0
3.47875267208e-05 -0.0709146425906 0
8.94290527349e-05 -0.0709859721059 0
0.000143203922669 -0.0710493899547 0
0.000193689463797 -0.0711065657499 0
0.000241651880172 -0.0711571933551 0
0.000288890838138 -0.0712042766456 0
0.000333599452798 -0.0712443423147 0
0.000374822418325 -0.0712800238499 0
0.000413974786479 -0.0713117987001 0
0.000451308593749 -0.0713390724131 0
0.00048590161253 -0.0713625288673 0
0.00051744778327 -0.0713831286174 0
0.000546472929512 -0.0714009416651 0
0.000541867085 -0.0707435989102 0
-0.000537324257227 -0.0707331375896 0
1.41312863475e-05 -0.0691694105935 0
-0.000463018792305 -0.0696292990328 0
0.000647636177123 -0.0711002821787 0
-0.000654802091243 -0.0710973553485 0
0.000447639091065 -0.0696007733048 0
-0.000169603373958 -0.0681218461717 0
0.000150986884311 -0.0680924944872 0
0.00049733588962 -0.0706095174205 0
-0.000504664531024 -0.0705925492355 0
-3.27244422709e-05 -0.0708594318858 0
-0.000556124909614 -0.0714101258478 0
0.000549024689251 -0.0714270879812 0
-0.000229917005963 -0.0689795126415 0
-0.000284311509729 -0.0700547075683 0
0.000197361156981 -0.0689989482195 0
0.000274159861652 -0.0700567570706 0
-0.000518439001846 -0.0710311297564 0
0.00050929229184 -0.0710330019025 0
-0.000337318700572 -0.0699706842797 0
0.000615086628093 -0.0712807024386 0
-0.000622959663899 -0.0712760121856 0
-7.66967525689e-06 -0.0672363868439 0
0.000364124115379 -0.0699363369991 0
0.00026418385766 -0.0712572967471 0
6.89796985334e-06 -0.0679163794339 0
-0.000289118265908 -0.0712686537021 0
-0.000274216172471 -0.0705865467726 0
-2.48209125677e-05 -0.0679143740728 0
0.000263583210104 -0.0705900766025 0
0.000688498653503 -0.0713184818151 0
-0.000694429706813 -0.0713140808587 0
0.000563636486736 -0.0703493751229 0
-0.000574121067062 -0.0703721901946 0
-0.000280188892055 -0.0690794045262 0
0.000283734720163 -0.0690459275162 0
3.52670544373e-05 -0.0700937634707 0
-2.96284942541e-05 -0.0696755156622 0
2.11193201892e-05 -0.0696702192633 0
-2.91004099554e-06 -0.0684578498236 0
-0.000305494383715 -0.0707147023679 0
-8.61345101725e-05 -0.0671375488608 0
-0.000355046953767 -0.0709050463286 0
0.000344696609447 -0.0709091603645 0
0.000269381182536 -0.070730834457 0
0.000615663354119 -0.0707663420645 0
0.00062652478372 -0.0710574772946 0
-0.00063564889742 -0.0710931293791 0
-0.000622695511937 -0.0707576920125 0
0.000115309086432 -0.0671495442407 0
0.000526700553822 -0.0712316551758 0
-0.000535542569485 -0.0712269110165 0
-0.000495154530859 -0.0701377160373 0
-0.000339233943362 -0.0688999060495 0
0.000483450357048 -0.0701475653283 0
0.000450219195866 -0.071248060959 0
-0.000490994697799 -0.0712020626047 0
0.000108551646988 -0.0686972999333 0
0.000319420992909 -0.0688623035264 0
-0.000643390819493 -0.0714455737807 0
-0.000443454239177 -0.0716470363387 0
0.000639647372376 -0.0714484599192 0
0.000446247870623 -0.0716462177098 0
-0.000140233529363 -0.068693937817 0
-7.70176560758e-05 -0.0703267550532 0
-0.00032581084447 -0.0716342920813 0
6.52716222448e-05 -0.0703299438212 0
0.000292011541136 -0.0716899608241 0
5.11510734082e-05 -0.0714542713205 0
-0.000374785731099 -0.0695639397949 0
-0.000478693253056 -0.0699327223471 0
-0.000422738531702 -0.0711276346983 0
0.000413030693242 -0.0711322256667 0
0.000347108918924 -0.0695533353115 0
-3.98843717641e-05 -0.0667536100963 0
0.000471571180588 -0.0699034910449 0
-0.000105483020966 -0.0713793880301 0
1.8975432441e-05 -0.067806948499 0
-0.000609681681996 -0.0711495014927 0
0.000602962215678 -0.0711525441496 0
0.000655491191768 -0.0712814382146 0
0.000675132821462 -0.0713435653054 0
-0.000682096671315 -0.0713388999014 0
-0.00018506826811 -0.06947716337 0
-0.00023258801214 -0.0684678711423 0
0.00055947927057 -0.0708666986445 0
-0.000663346221325 -0.0712888122644 0
0.000224026029142 -0.0694826800424 0
-0.000571727832668 -0.0708444750955 0
-0.000408976553518 -0.0703522894042 0
-0.000233187238257 -0.0708373165093 0
0.000222215106168 -0.0708411603884 0
-0.000188949683029 -0.0702936124116 0
0.000503910862955 -0.0703386542004 0
0.000404007004311 -0.0703781040473 0
-0.000562781973801 -0.0713101981749 0
0.000554165320482 -0.0713152505192 0
-5.50040890132e-05 -0.0675702841873 0
0.000197513202263 -0.0684275930624 0
-0.000246503977359 -0.0673389790896 0
0.000282141964551 -0.0680223275923 0
0.000227980055935 -0.0692925414233 0
-0.000300658006651 -0.0680632768825 0
-0.00024641151653 -0.0693324504843 0
-0.000469714139364 -0.0703118937897 0
-7.48900913916e-05 -0.0705854303488 0
8.42793652164e-05 -0.070107834981 0
-0.000612385665116 -0.070741863786 0
6.31166540905e-05 -0.0705889868562 0
-9.74074898178e-05 -0.0701105860855 0
-0.000168756675581 -0.0685499810961 0
0.000140019748063 -0.0710402840483 0
0.000159206510494 -0.0685077867601 0
0.000420711912727 -0.0709207290634 0
0.000598687771564 -0.0706897442439 0
0.000223233625353 -0.071655200085 0
-0.000663705677109 -0.0712348805923 0
0.000656448309164 -0.0712404314727 0
0.00010501292886 -0.066722672559 0
-0.000416288250182 -0.0707150511301 0
0.000292902194204 -0.0673938115584 0
0.000402115357712 -0.0707190777105 0
0.000554300584875 -0.0704299889716 0
0.000623856259908 -0.0713543720064 0
-0.00063172171212 -0.0713492247249 0
-0.000563019055382 -0.0704271499908 0
-0.000435441782625 -0.070944401023 0
4.99101310533e-05 -0.0676822505584 0
-0.000652142496255 -0.0709681684136 0
-0.000523686883856 -0.0699993387952 0
-0.000346931025856 -0.0695760206203 0
0.000234051948928 -0.0702232500454 0
-0.000695127714019 -0.0713953314293 0
0.00068936831414 -0.0713995358607 0
1.10544727137e-06 -0.0696231166377 0
-0.00020436787313 -0.0716855177244 0
0.000645548175971 -0.0709825933205 0
1.72418990362e-05 -0.0674305566776 0
0.000515449893703 -0.0700110025508 0
0.000404235236339 -0.0694584854614 0
0.000111570571494 -0.0705396165693 0
-0.000682074666013 -0.0712241145549 0
0.000675972382443 -0.0712274907856 0
0.000417060518151 -0.0705616221205 0
0.000548914367585 -0.0710554144144 0
-0.000386945635558 -0.0692705669768 0
-0.000483690029052 -0.070881533906 0
0.00045519835104 -0.0708878730031 0
-0.000328457763575 -0.0710590996658 0
0.000318174619735 -0.0710635464479 0
-7.88944200263e-05 -0.0680665444693 0
0.000121542476216 -0.0716448950736 0
-0.000253136264328 -0.07179252447 0
-0.000132918781565 -0.0689768586417 0
-0.000230443435171 -0.0667683187469 0
0.000246156125958 -0.0718009732508 0
0.000143245955672 -0.0689635613444 0
-0.000103496927467 -0.0684814626604 0
-0.000143645702841 -0.0716293225524 0
-0.000228560682818 -0.0694483922573 0
-0.000260298698343 -0.0703502528293 0
-0.000176095585494 -0.0710040896202 0
0.000250624944768 -0.070347594208 0
0.00021196436106 -0.0697793094829 0
-0.000225959626345 -0.0697809505815 0
-0.000455701408012 -0.071220924414 0
0.000446257994859 -0.0712257521171 0
7.04548625502e-05 -0.0684409383289 0
-0.000119119721561 -0.067938247847 0
0.000330799565705 -0.0691309297619 0
-0.000341736595329 -0.0691081238299 0
-0.00061104047553 -0.071018448362 0
-0.000347446226011 -0.0703995108479 0
0.000399062853036 -0.0699309793215 0
-0.000363004112562 -0.0714324282837 0
0.00059662831491 -0.0710250896709 0
0.000624952340674 -0.0709490849551 0
0.000153639686578 -0.0698409379251 0
-0.000410852502927 -0.0699780406443 0
-0.000704202113552 -0.0713695942976 0
0.000697938750751 -0.0713740756146 0
-6.24621159828e-05 -0.0691904892546 0
0.000210123026548 -0.0694565821578 0
-0.000163378045928 -0.0699124326006 0
0.000263476811457 -0.0717959372482 0
-4.38262564604e-05 -0.0676566698446 0
0.000576013212583 -0.0715301886247 0
-0.000575211767879 -0.0715324259737 0
-0.000128856620802 -0.0699662423422 0
0.000107587485009 -0.0699838513244 0
-0.000280273029282 -0.071782617644 0
-0.000566311252094 -0.0710116164982 0
-0.000577573719884 -0.0706649404082 0
-0.000576361066314 -0.0712760225955 0
-0.000437678890999 -0.0715908351427 0
-0.000557705977715 -0.0704921525533 0
0.000572509934702 -0.0706847395138 0
0.000461297055494 -0.0714416311991 0
0.000431596641998 -0.0715982163567 0
0.000584159745408 -0.0712366592279 0
2.72427665551e-05 -0.0691130955759 0
-0.000463906180315 -0.0714300142446 0
-0.00025951035965 -0.0685985412661 0
-3.19622379843e-05 -0.0716850907906 0
-4.13517457658e-05 -0.0704653444174 0
0.000358761449632 -0.0696234165709 0
-0.000111253030067 -0.0707505088036 0
0.00024172894424 -0.0685591770973 0
9.97232071962e-05 -0.0707543167226 0
0.000674334298783 -0.0713577040691 0
0.000269351185729 -0.0669242493273 0
-0.000508103735115 -0.071143660457 0
0.000498979566201 -0.0711481582606 0
-0.000246811162845 -0.0709722757191 0
0.000235995035035 -0.0709764920261 0
-0.0004414400103 -0.0706256886716 0
-0.000638272648528 -0.0709491931622 0
3.58684483874e-05 -0.0670720129013 0
-0.000193606997847 -0.0707291597692 0
-0.00043549246052 -0.0710138029721 0
0.000425830923797 -0.0710177779776 0
-0.000679597098156 -0.0713481799959 0
0.000660246743903 -0.0711509656814 0
0.000388954653692 -0.0692386690534 0
-0.000505776185312 -0.0712880731111 0
0.000496694717361 -0.0712931089552 0
0.000328587228468 -0.0715081882299 0
-0.000663404794564 -0.0711446722266 0
-0.000593708105681 -0.0713565954168 0
0.000585397915276 -0.0713618994565 0
0.00035275998236 -0.0687100957788 0
0.000101561908947 -0.0681876773821 0
0.000551465778898 -0.0715172544212 0
-0.000556549585061 -0.0715145994556 0
-0.000494493069242 -0.0703806004733 0
2.14901054117e-05 -0.0675740565455 0
4.41065754572e-06 -0.0687456963947 0
-2.90667631401e-05 -0.0670870782876 0
0.00059422402965 -0.0705732468799 0
0.000486976853284 -0.0703914442696 0
-0.000453177062975 -0.0696476824544 0
-0.000431615222178 -0.0675077136552 0
-0.000349248870739 -0.068716607179 0
0.000594932498626 -0.0709216740274 0
-0.000599379902607 -0.071225140541 0
0.000591301691585 -0.0712295312927 0
0.00028293496292 -0.0709824267474 0
-0.000602386023681 -0.0705762626292 0
-0.000471619922777 -0.0698074206199 0
0.000240185542125 -0.0697541881125 0
-0.000312959564957 -0.0709811647118 0
-3.06473795795e-05 -0.0712556830157 0
4.69778770878e-05 -0.0703999721379 0
-5.93157539859e-05 -0.0704032751227 0
-0.000402469421495 -0.0705509825331 0
0.000378764375573 -0.070556334166 0
-0.000668505343606 -0.0714392334452 0
0.000664043872978 -0.0714429362811 0
-0.000419050418258 -0.0693680060483 0
0.000463508656859 -0.0698504460628 0
-0.000277308922982 -0.0697924370507 0
0.000362066221833 -0.0712188577234 0
-0.000327845024254 -0.0669732149663 0
0.000357417808434 -0.0702780696281 0
0.000655886961151 -0.071369999208 0
-0.000663300366432 -0.0713648415234 0
-0.000297581291221 -0.0707400178267 0
-6.83979213338e-05 -0.0674644182516 0
0.000286927582964 -0.0707436661264 0
-0.000324235484401 -0.0689353414178 0
0.000152264134049 -0.0713547412487 0
0.000169242603854 -0.0718109275447 0
0.000558997032655 -0.070500828859 0
-0.0005342774671 -0.0702199031536 0
0.00065738622314 -0.071293801979 0
-0.000664578972706 -0.0712893941602 0
0.000616658335653 -0.0713980337727 0
-0.00062348286158 -0.0713902067519 0
0.000108975116372 -0.0680415094071 0
0.000514086223735 -0.0707692973792 0
0.000486179744747 -0.0676107330333 0
2.39245853242e-05 -0.0665349671975 0
7.49536457038e-05 -0.0677956130681 0
-0.000633536337262 -0.0709321932124 0
-0.000518107569377 -0.0707913041041 0
-0.000351761288787 -0.071137729629 0
0.000341661207453 -0.0711423903063 0
0.000102249074663 -0.0694881372079 0
0.000306239650586 -0.0688723448114 0
-0.000143481405229 -0.0666219552406 0
0.000441209905407 -0.0716478795504 0
-0.000572820267182 -0.0711076046958 0
0.00056199150444 -0.0711122750751 0
0.000507936026318 -0.0701187621641 0
-0.00048002697381 -0.0716166332763 0
-0.000159965037247 -0.071822212834 0
0.000627736030709 -0.0708367198105 0
-0.000396645847343 -0.0712516055972 0
-0.000274150924302 -0.0688049722154 0
0.000453463549138 -0.070059012377 0
0.000531424688481 -0.0702136942823 0
0.000389087862174 -0.0694066462276 0
0.000473061058995 -0.0697394034602 0
-0.000428819104438 -0.0700434412457 0
-0.000626871015964 -0.0712427510637 0
6.26217333642e-05 -0.068308200101 0
-8.72917561794e-05 -0.0688940937695 0
-0.000634058627668 -0.0712188239582 0
0.000626214871668 -0.0712251950192 0
-0.000396005570647 -0.071195369795 0
0.000386171208452 -0.0712001772521 0
0.000216252636587 -0.0683579068744 0
0.000530909159014 -0.0709494686028 0
0.000501431495672 -0.0709399505268 0
0.000262321261536 -0.0688080704666 0
-0.000544197469317 -0.0702186844004 0
-0.000216041711116 -0.0691866613572 0
-0.000572953831837 -0.0709698233231 0
-0.000601409075502 -0.0713193560776 0
0.000593195232661 -0.0713243804649 0
5.23436134599e-05 -0.0717204956582 0
-0.000178905722855 -0.0701575731624 0
-0.000160704370523 -0.0704506167945 0
-0.000633093631885 -0.0708313537361 0
0.000232866745889 -0.0691895764323 0
-9.03496147457e-05 -0.0683198092764 0
-0.000589975834248 -0.0708478876222 0
0.000369997360238 -0.070147484644 0
0.000170213238682 -0.0718479239053 0
0.000354397935938 -0.0696160185464 0
0.000150773454022 -0.0704545266693 0
-0.000180937529108 -0.0713238095062 0
-9.16711037348e-05 -0.0677957123259 0
0.000181358724749 -0.0701749510702 0
-9.27892655168e-05 -0.0686918134159 0
0.000255875978432 -0.0699947639313 0
-0.000379724511153 -0.0696264787056 0
-0.000371375201078 -0.0701511485799 0
-0.000269294797106 -0.0699974555382 0
-1.82995389218e-06 -0.0675117713358 0
9.37653672e-05 -0.0686786921803 0
2.16763250817e-05 -0.066873890653 0
0.000688971406695 -0.0713738579081 0
-0.000695689040423 -0.071368983441 0
0.000462702574503 -0.069080841737 0
0.000518179141248 -0.0683369397009 0
-5.97402891335e-05 -0.0717872174253 0
-0.000527332067442 -0.0683332213535 0
-0.000471367000102 -0.0690966319935 0
0.000161927795064 -0.0703111252258 0
5.894496268e-05 -0.0705387152106 0
-0.00023821405899 -0.0684041061334 0
-0.000174840929459 -0.0703142883961 0
-7.12802243319e-05 -0.0705422541393 0
0.000638011112253 -0.0711947700619 0
0.000299676669442 -0.0714191387418 0
-6.84816974792e-05 -0.0694157355981 0
0.000268824594995 -0.0666604469081 0
-0.00019821795334 -0.0676750329363 0
0.000444031654644 -0.0670236752512 0
-0.000131887034776 -0.0681928633091 0
0.000620896109776 -0.0710942387095 0
0.000655149909315 -0.0713340255277 0
-0.000662519461651 -0.0713292301163 0
-0.000510035288559 -0.0709272084909 0
0.00067816569938 -0.071288638049 0
-0.000684823868651 -0.0712845456735 0
7.90748864635e-05 -0.0708278030371 0
-0.000430608871845 -0.069578715841 0
0.000107817570939 -0.0717870515708 0
-9.65441999979e-05 -0.0669176689657 0
0.00024608889649 -0.0697989353179 0
-0.000146612228245 -0.0708985958874 0
0.000135293720464 -0.070902674316 0
-0.000647566691713 -0.0711633640894 0
0.000338336901352 -0.0693581056739 0
-3.23178205029e-05 -0.0694322049611 0
-0.000302278781201 -0.0692484670111 0
0.000513371749297 -0.0712901876985 0
-0.000155808077448 -0.0682750889978 0
-0.000356866805962 -0.069348043954 0
0.00018528427151 -0.0677569262887 0
1.05748776796e-05 -0.0681032699258 0
-0.000666857873708 -0.0710955424772 0
-0.000259024256735 -0.0700902881217 0
1.10558512184e-05 -0.0674501021357 0
-8.8542501204e-05 -0.0701549057297 0
-0.000288314702955 -0.0697031782193 0
6.08498440755e-05 -0.0698799383598 0
-0.000201513831568 -0.0707174411181 0
0.00019041653062 -0.070721155588 0
-7.40429272338e-05 -0.0698824285259 0
0.000116078126474 -0.0692262527313 0
1.40392471944e-05 -0.0673045763131 0
9.71755906594e-05 -0.0695554941252 0
0.00068103985269 -0.0712949102081 0
-0.000686697090351 -0.0712878536017 0
-0.000155393521407 -0.0718596983474 0
0.000280319482303 -0.0692748147065 0
0.000659824109158 -0.0710952817803 0
-1.18297372793e-05 -0.0673040557217 0
-0.000480908332224 -0.0671882231323 0
-0.000588234188888 -0.071274547707 0
0.000579850860619 -0.0712793452961 0
-0.00053518342838 -0.071341439822 0
0.000526332545767 -0.0713467199534 0
-0.000144680879228 -0.06719352561 0
-0.000615084770421 -0.0708542115288 0
6.28156624287e-05 -0.0690541223657 0
0.000609968487015 -0.0713393526022 0
0.000417830960478 -0.0697172239582 0
3.37619542224e-05 -0.0687351387654 0
0.000640129869976 -0.0711678419441 0
-0.000613089013077 -0.0713758449854 0
0.000604989812902 -0.071381280024 0
0.00017249053537 -0.0707574292017 0
0.000487037240319 -0.070548366708 0
-5.35007822856e-05 -0.0701435275821 0
-0.000558039755788 -0.071174490335 0
0.000549406136607 -0.0711788755827 0
-0.000420686728333 -0.0708377593346 0
-8.31956418164e-05 -0.068343506685 0
0.0004036695548 -0.0708464919596 0
0.000362679802955 -0.0691981180657 0
0.000152281447293 -0.0668920778942 0
-0.000595013023074 -0.0705575473025 0
4.2768038018e-05 -0.0701510759628 0
-0.000304790515814 -0.0708376081582 0
0.000294107576248 -0.0708412962479 0
0.000369507720163 -0.0707842180429 0
-0.000456020645634 -0.0704833434275 0
-0.000161797104656 -0.0718777604231 0