# vtk DataFile Version 2.0
Generated with Solid Solver
ASCII
DATASET UNSTRUCTURED_GRID
POINTS 999 float 
0.2 4.325 0.0
1.4 4.325 0.0
1.4 4.825 0.0
0.2 4.825 0.0
1.4 4.34523264049 0.0
1.4 4.36751203886 0.0
1.4 4.39204525371 0.0
1.4 4.4190602782 0.0
1.4 4.44880817466 0.0
1.4 4.48156541084 0.0
1.4 4.51763640748 0.0
1.4 4.5573564007 0.0
1.4 4.60109451608 0.0
1.4 4.64925723872 0.0
1.4 4.70229217343 0.0
1.4 4.76069218095 0.0
1.33333333333 4.825 0.0
1.26666666667 4.825 0.0
1.2 4.825 0.0
1.13333333333 4.825 0.0
1.06666666667 4.825 0.0
1.0 4.825 0.0
0.933333333334 4.825 0.0
0.866666666668 4.825 0.0
0.800000000001 4.825 0.0
0.733333333334 4.825 0.0
0.666666666668 4.825 0.0
0.600000000001 4.825 0.0
0.533333333334 4.825 0.0
0.466666666667 4.825 0.0
0.4 4.825 0.0
0.333333333334 4.825 0.0
0.266666666667 4.825 0.0
0.2 4.76069218095 0.0
0.2 4.70229217343 0.0
0.2 4.64925723872 0.0
0.2 4.60109451608 0.0
0.2 4.5573564007 0.0
0.2 4.51763640748 0.0
0.2 4.48156541084 0.0
0.2 4.44880817466 0.0
0.2 4.4190602782 0.0
0.2 4.39204525371 0.0
0.2 4.36751203886 0.0
0.2 4.34523264049 0.0
0.212131543907 4.30926329506 0.0
0.224675715302 4.29385348652 0.0
0.23762369102 4.27878141198 0.0
0.250966423879 4.26405760374 0.0
0.264694484585 4.24969246611 0.0
0.278798324214 4.23569599189 0.0
0.293267939266 4.22207810803 0.0
0.308093289028 4.20884826442 0.0
0.323263842145 4.19601585877 0.0
0.338769084145 4.18358978512 0.0
0.354597997314 4.17157887342 0.0
0.37073960121 4.15999145532 0.0
0.387182441982 4.14883575334 0.0
0.403915091795 4.13811952025 0.0
0.420925712897 4.12785033813 0.0
0.438202430937 4.11803537461 0.0
0.455733079095 4.10868154223 0.0
0.473505374364 4.09979539439 0.0
0.491506842655 4.09138316882 0.0
0.509724826085 4.0834507802 0.0
0.528146580414 4.07600377808 0.0
0.546759103951 4.06904741762 0.0
0.56554943677 4.06258654322 0.0
0.584504260001 4.05662573401 0.0
0.60361041518 4.0511691282 0.0
0.622854334779 4.04622060039 0.0
0.642222678753 4.04178358113 0.0
0.661701681839 4.03786122392 0.0
0.681277836375 4.03445624851 0.0
0.700937245817 4.03157107217 0.0
0.720666255912 4.02920769845 0.0
0.740450894784 4.02736780161 0.0
0.76027736978 4.02605266363 0.0
0.780131702711 4.02526321235 0.0
0.799999999998 4.025 0.0
0.819868297285 4.02526321235 0.0
0.839722630216 4.02605266363 0.0
0.859549105212 4.02736780161 0.0
0.879333744085 4.02920769845 0.0
0.89906275418 4.03157107217 0.0
0.918722163621 4.03445624851 0.0
0.938298318157 4.03786122392 0.0
0.957777321244 4.04178358113 0.0
0.977145665218 4.04622060039 0.0
0.996389584817 4.0511691282 0.0
1.01549574 4.05662573401 0.0
1.03445056323 4.06258654322 0.0
1.05324089605 4.06904741762 0.0
1.07185341958 4.07600377808 0.0
1.09027517391 4.0834507802 0.0
1.10849315734 4.09138316882 0.0
1.12649462563 4.09979539439 0.0
1.1442669209 4.10868154222 0.0
1.16179756906 4.1180353746 0.0
1.1790742871 4.12785033813 0.0
1.1960849082 4.13811952024 0.0
1.21281755802 4.14883575334 0.0
1.22926039879 4.15999145532 0.0
1.24540200269 4.17157887342 0.0
1.26123091585 4.18358978512 0.0
1.27673615785 4.19601585877 0.0
1.29190671097 4.20884826442 0.0
1.30673206073 4.22207810803 0.0
1.32120167579 4.23569599189 0.0
1.33530551541 4.24969246611 0.0
1.34903357612 4.26405760374 0.0
1.36237630898 4.27878141198 0.0
1.3753242847 4.29385348652 0.0
1.38786845609 4.30926329506 0.0
1.05632730172 4.46025283906 0.0
0.549964048968 4.4630053958 0.0
0.806135520676 4.31186690218 0.0
0.603895783049 4.26079310371 0.0
1.22984770884 4.38318704125 0.0
0.3703382852 4.38423552752 0.0
0.995322815839 4.25565031136 0.0
0.728315816804 4.1765935937 0.0
0.872128173905 4.17288724072 0.0
1.14059401893 4.27298468684 0.0
0.461553191009 4.27181671009 0.0
0.784706775856 4.56821390922 0.0
0.398287125272 4.57945970538 0.0
1.20625306554 4.58334743514 0.0
0.624100842742 4.1589824436 0.0
0.5257453845 4.18811776279 0.0
0.978502430793 4.15488737058 0.0
1.07419209812 4.18825154482 0.0
0.364313698077 4.28677035763 0.0
1.23509538257 4.28681716733 0.0
0.68124123937 4.39284548972 0.0
1.31679378691 4.35012066749 0.0
0.283206213094 4.35012066749 0.0
0.791498533126 4.11467141721 0.0
0.931481076052 4.3801344917 0.0
0.966719065571 4.62778042839 0.0
0.684451667517 4.11068036752 0.0
0.618335406951 4.62686910993 0.0
0.450982331762 4.19686171732 0.0
0.915674266355 4.10995633851 0.0
1.14900051594 4.19689012964 0.0
1.30193709687 4.4481448133 0.0
0.298574667609 4.44816296922 0.0
1.05734787542 4.34990107617 0.0
0.539273225177 4.35252599628 0.0
0.709896798149 4.27721026287 0.0
0.895708916005 4.26924194389 0.0
0.813273511364 4.43835766235 0.0
0.559289631452 4.13230879113 0.0
1.04001407307 4.13281539633 0.0
0.801161810585 4.23146244955 0.0
0.665113819616 4.52056650186 0.0
0.852577362173 4.09111846388 0.0
0.390256727869 4.2242806298 0.0
1.20974450479 4.22428104599 0.0
0.921542541183 4.52778058719 0.0
1.14030889032 4.36437344809 0.0
1.15600477272 4.46808538305 0.0
0.435243219029 4.4750581257 0.0
0.462045157798 4.36654654286 0.0
0.735806812738 4.08472269746 0.0
1.30082934537 4.29793772796 0.0
0.299170654625 4.29793772796 0.0
0.533651712118 4.26265983853 0.0
0.666130919144 4.21652131559 0.0
1.0676097303 4.26179469382 0.0
1.08054433577 4.58530946155 0.0
0.506773767255 4.56568295079 0.0
0.626745312844 4.10124420826 0.0
0.933845304214 4.2106954732 0.0
0.293717639664 4.55175000185 0.0
0.312505022079 4.66426411351 0.0
1.3058164124 4.55154930624 0.0
1.29054387065 4.66302765963 0.0
0.973467966326 4.09941619478 0.0
0.487935413164 4.15087084015 0.0
0.461549079751 4.68836834982 0.0
1.11203248746 4.15093503889 0.0
1.14453515393 4.70617370303 0.0
0.840217564202 4.68891146633 0.0
0.585347033288 4.20539048534 0.0
0.619177396637 4.34227576306 0.0
0.331644410315 4.24962190462 0.0
1.26835558968 4.24962190462 0.0
1.01536156978 4.19987473052 0.0
0.809331033562 4.07065709122 0.0
0.982321540791 4.33437358971 0.0
0.725600576914 4.66999651799 0.0
0.812291456186 4.16642942492 0.0
0.335887692543 4.33918235669 0.0
1.26344844681 4.34017131907 0.0
1.23449730504 4.49457441524 0.0
1.34334172095 4.40539551957 0.0
0.256658279045 4.40539551957 0.0
0.741646926828 4.34287908527 0.0
0.674799084703 4.16673768522 0.0
1.18647435526 4.30955189749 0.0
0.360563250283 4.49596479569 0.0
0.873716483853 4.33845499203 0.0
0.418704489949 4.31146264283 0.0
0.492670911224 4.22931614809 0.0
0.403480880356 4.19046776931 0.0
1.19651541215 4.1904686246 0.0
0.728649253738 4.46214546491 0.0
1.00883674467 4.40174664879 0.0
1.11035034557 4.23161841276 0.0
0.261968539765 4.3130079512 0.0
1.33803146023 4.3130079512 0.0
0.74649980488 4.1318354354 0.0
0.927597725248 4.1577597079 0.0
0.892956618256 4.07619338913 0.0
0.659794281787 4.07951387326 0.0
0.587663534405 4.09486537006 0.0
0.942353209926 4.07935300973 0.0
1.01493747319 4.09476013719 0.0
0.613130017774 4.41369803882 0.0
0.449373501074 4.15377191978 0.0
0.514840228377 4.12225850006 0.0
0.497057592 4.41333092106 0.0
1.15061382426 4.15379293084 0.0
1.08514419473 4.12228328152 0.0
0.745617635771 4.23098957592 0.0
0.87523452213 4.59853036549 0.0
0.855262884783 4.2258970831 0.0
1.01126200032 4.53280064162 0.0
1.09391916408 4.40632408872 0.0
1.04436265455 4.71482000827 0.0
0.314320181089 4.38773968607 0.0
1.28649331902 4.38743720145 0.0
0.771211579291 4.06316862024 0.0
0.432259099658 4.24006002157 0.0
0.698583889427 4.07144353526 0.0
1.16802128371 4.238862881 0.0
1.09587629216 4.3086676659 0.0
1.35920470355 4.35666960471 0.0
0.240795296449 4.35666960471 0.0
0.504003580654 4.30815758118 0.0
0.579942709371 4.5342075073 0.0
0.875915224914 4.12815792528 0.0
0.426503136644 4.40717733008 0.0
0.57541416445 4.30365301522 0.0
0.683877978289 4.33161848113 0.0
0.888061695889 4.44633509246 0.0
0.26012287522 4.49859249103 0.0
1.33987712478 4.49859249103 0.0
0.801393572636 4.37060096582 0.0
0.558460082533 4.72496728209 0.0
1.1741923373 4.41132830101 0.0
0.83220012886 4.12779415912 0.0
1.02815069622 4.30053276509 0.0
0.948308583502 4.2880204454 0.0
0.846588933095 4.50834596945 0.0
0.343666800815 4.43485820652 0.0
1.25632767671 4.43480360053 0.0
0.97849585731 4.47031535602 0.0
1.10170977548 4.51507265998 0.0
0.662193131828 4.26809398492 0.0
0.400503668388 4.26881657105 0.0
1.20117145985 4.26130427377 0.0
0.350957892513 4.21796558019 0.0
1.24904210749 4.21796558019 0.0
0.771964652188 4.18905379403 0.0
0.932165148285 4.72736281402 0.0
0.373672364094 4.73321357765 0.0
0.760245937722 4.28409350779 0.0
0.848718469252 4.05767763075 0.0
1.23385612561 4.7358294747 0.0
0.846421485813 4.28065918421 0.0
0.651597058631 4.13043284014 0.0
0.650489852552 4.72138045504 0.0
0.58457834847 4.16375088261 0.0
0.48701309933 4.18859927013 0.0
0.708495738406 4.58856947756 0.0
1.11203398596 4.18878062515 0.0
0.54865558244 4.10250047869 0.0
1.05126102377 4.10234629471 0.0
0.300013757486 4.26259646442 0.0
1.29998624251 4.26259646442 0.0
0.9465032388 4.12718070354 0.0
0.708587583337 4.14146095907 0.0
0.973348904468 4.19537871864 0.0
0.628721855632 4.19538356945 0.0
0.380175010018 4.34021880077 0.0
0.662092932411 4.45899041267 0.0
1.05133526787 4.22221992007 0.0
0.528087045766 4.64327882187 0.0
1.22233124543 4.33521693908 0.0
1.19001193434 4.36273586668 0.0
0.853024099244 4.39544003492 0.0
0.542800296246 4.22324366905 0.0
0.247706318737 4.45239119247 0.0
1.35229368126 4.45239119247 0.0
0.599153768578 4.12953797005 0.0
1.01616570494 4.16227683178 0.0
0.744705786938 4.40569544575 0.0
1.31929001115 4.73702550052 0.0
0.777615355331 4.15113602511 0.0
1.33132411895 4.60631378639 0.0
0.265621610877 4.60975488866 0.0
0.532023338888 4.15374454388 0.0
1.0697792195 4.15241429251 0.0
0.286371037106 4.73010312914 0.0
0.497725885905 4.50153668256 0.0
0.46053455822 4.31587947599 0.0
0.433799237968 4.54629400991 0.0
0.388624781906 4.65094200004 0.0
0.554823673752 4.40451940232 0.0
1.1421595646 4.31818301431 0.0
1.14760043966 4.61655103139 0.0
1.21258698805 4.65320200685 0.0
1.16279096046 4.53292621409 0.0
0.995762647814 4.12508772517 0.0
0.456229040627 4.61456685246 0.0
0.707289391156 4.21520271873 0.0
0.763036833302 4.74285445535 0.0
0.78386198569 4.49787013126 0.0
[...]
POINT_DATA 999
VECTORS Displacement float
-0.00118022450384 -0.106721506645 0
0.00116910054892 -0.106729496585 0
0.0 -0.108 0
0.0 -0.108 0
0.00124171991208 -0.106723145009 0
0.00131243727605 -0.106713727682 0
0.00137569639412 -0.106701629703 0
0.00142833439202 -0.106693049077 0
0.00145749504317 -0.106691645575 0
0.00147224547885 -0.106701207951 0
0.00145085461866 -0.106725139492 0
0.00138974586508 -0.106767468447 0
0.00128269433868 -0.106844085169 0
0.00111051537172 -0.106965403487 0
0.000865662377457 -0.107156997792 0
0.000518631505187 -0.107459664822 0
0.0 -0.108 0
0.0 -0.108 0
0.0 -0.108 0
0.0 -0.108 0
0.0 -0.108 0
0.0 -0.108 0
0.0 -0.108 0
0.0 -0.108 0
0.0 -0.108 0
0.0 -0.108 0
0.0 -0.108 0
0.0 -0.108 0
0.0 -0.108 0
0.0 -0.108 0
0.0 -0.108 0
0.0 -0.108 0
0.0 -0.108 0
-0.000516503072299 -0.10746100924 0
-0.000864405720747 -0.107157633667 0
-0.0011203959674 -0.106963438212 0
-0.00128815774257 -0.106839013524 0
-0.00139500214705 -0.106760987623 0
-0.00145766440285 -0.106717939574 0
-0.00148003655337 -0.106694043492 0
-0.0014659426416 -0.10668433217 0
-0.00143737966778 -0.106685547534 0
-0.00138531913813 -0.106693935035 0
-0.00132261777698 -0.106705880017 0
-0.00125241112971 -0.106715199368 0
-0.00112087264169 -0.106684076733 0
-0.00105562833955 -0.106643190695 0
-0.000984832898623 -0.106595842641 0
-0.000907264997264 -0.106541948441 0
-0.000823563672432 -0.106479312484 0
-0.000735868741806 -0.106406416649 0
-0.000643479251508 -0.106324533515 0
-0.000543149880245 -0.106232597125 0
-0.000436923997683 -0.106124369797 0
-0.000329065531912 -0.106007954546 0
-0.000215220625707 -0.105876159928 0
-9.32570501774e-05 -0.105729439958 0
3.09778510673e-05 -0.105563486811 0
0.000161608572943 -0.105380201882 0
0.000297117352435 -0.105176706918 0
0.000440139762579 -0.104948385274 0
0.000585672203527 -0.104692056745 0
0.000744514429806 -0.104404323974 0
0.000902919229362 -0.104078571658 0
0.00108200879287 -0.10370344345 0
0.00126068509431 -0.103254269363 0
0.00149704140306 -0.102537718442 0
0.00163618850764 -0.101854689208 0
0.00170793470119 -0.101198725269 0
0.00172631967138 -0.10058769436 0
0.00168494049869 -0.100018816963 0
0.00160676266261 -0.0995055004244 0
0.00148622863343 -0.0990432855758 0
0.00134210008741 -0.0986466792973 0
0.00116106337522 -0.0982976870066 0
0.000961471137011 -0.0980157919099 0
0.000733501643463 -0.097788984524 0
0.000498628424035 -0.097624779882 0
0.000252127959767 -0.097525279192 0
-2.22094307352e-05 -0.0974894855671 0
-0.00027927939698 -0.0975290652777 0
-0.000528002927512 -0.0976296294544 0
-0.000763316935273 -0.097789422373 0
-0.000983261383783 -0.0980148846258 0
-0.0011836548791 -0.0983000729871 0
-0.00136565611016 -0.0986484658736 0
-0.00151887388145 -0.0990563939438 0
-0.00162781615079 -0.0995104721412 0
-0.00170429354895 -0.100021505392 0
-0.0017454250997 -0.100588965645 0
-0.00172864276487 -0.101198597508 0
-0.00165817913488 -0.101855210294 0
-0.00151796803146 -0.102542812756 0
-0.00127883152648 -0.103262053653 0
-0.00109921455209 -0.103710729847 0
-0.000919837310012 -0.104084682493 0
-0.000761209511826 -0.104410044062 0
-0.000602215924334 -0.104697570271 0
-0.0004564982821 -0.104953864085 0
-0.000313243537465 -0.105182284316 0
-0.000177430705753 -0.105385931637 0
-4.64767704938e-05 -0.105569377773 0
7.80849841682e-05 -0.105735525808 0
0.000200402271521 -0.105882472024 0
0.000314634551883 -0.106014487656 0
0.000422904477906 -0.106131103296 0
0.00052951044157 -0.10623948025 0
0.000630184323328 -0.106331523756 0
0.000722890144864 -0.106413518359 0
0.000810905392739 -0.10648653256 0
0.000894908696124 -0.106549284418 0
0.000972774046829 -0.106603310702 0
0.00104387131589 -0.106650808477 0
0.00110942491083 -0.106691864864 0
0.00108763483158 -0.105295620178 0
-0.00107334461837 -0.105277982918 0
2.54252678072e-05 -0.102227199507 0
-0.000802580745106 -0.102876036787 0
0.00133061252319 -0.106017934138 0
-0.00134017961176 -0.106014505736 0
0.000774133425283 -0.102810060325 0
-0.00015793218494 -0.100253464142 0
0.000127475225325 -0.100199649522 0
0.000982310590373 -0.104896934426 0
-0.00098947177852 -0.104861108089 0
-6.36570159783e-05 -0.105606411724 0
-0.0011512746774 -0.10671956298 0
0.00113990817523 -0.106754639443 0
-0.000204817388499 -0.101374224793 0
-0.000484172445666 -0.103571307359 0
0.000147440276812 -0.101381729267 0
0.000471693873535 -0.1035723668 0
-0.00103585944261 -0.105852105177 0
0.00102371238361 -0.105852826453 0
-0.000628802222725 -0.103749464893 0
0.00126295251607 -0.106419322201 0
-0.00127327882773 -0.106412775308 0
9.20734015666e-06 -0.0989149046607 0
0.000680781148064 -0.103666709055 0
0.000536353724616 -0.106422866182 0
0.000266258992948 -0.0996752937459 0
-0.000585676991686 -0.106445347588 0
-0.000489395334365 -0.104809267547 0
-0.000293538380343 -0.0996677334577 0
0.000475834102118 -0.104814532962 0
0.00143031299069 -0.106508680894 0
-0.00143788279756 -0.106502111644 0
0.00109975789438 -0.104411464245 0
-0.00111843906791 -0.104461647613 0
-0.000447230532808 -0.101990309128 0
0.000449202743584 -0.101914432525 0
6.80984706877e-05 -0.104038685674 0
9.26583580577e-05 -0.102540604471 0
-0.000101429236143 -0.102531661001 0
-3.35236322676e-06 -0.100923196019 0
-0.000603697979196 -0.105287352314 0
-0.000244984671861 -0.0986974109357 0
-0.000671004759487 -0.105555357368 0
0.000657272862992 -0.105561427423 0
0.000535344316309 -0.105324157266 0
0.00124274259669 -0.105286556751 0
0.00128426007654 -0.105945147165 0
-0.00130172726276 -0.106024706197 0
-0.00125142940267 -0.105271250806 0
0.000314521549348 -0.098680196446 0
0.00106456265465 -0.106305177504 0
-0.00107620794998 -0.106298519618 0
-0.000928490508531 -0.10387369584 0
-0.000474905048051 -0.101509749015 0
0.000912051728802 -0.10388999293 0
0.000921971213199 -0.10638310586 0
-0.00100267590536 -0.106282161305 0
0.000514099536308 -0.100582503838 0
0.000435269966998 -0.101428472249 0
-0.0013406082864 -0.10679612757 0
-0.000927001329225 -0.107236097021 0
0.00133616206312 -0.106799916769 0
0.000934888789757 -0.1072330003 0
-0.000563081627 -0.100567381907 0
-5.15454452782e-05 -0.104167080207 0
-0.00067341648546 -0.107211488548 0
3.61469140739e-05 -0.104172101601 0
0.00060547177548 -0.107330855044 0
0.000104064185631 -0.106847799756 0
-0.000599188341667 -0.102599447942 0
-0.000887124463729 -0.103598054947 0
-0.000822589132948 -0.106069127649 0
0.000809789359897 -0.106075647348 0
0.00054913695438 -0.102560386138 0
-7.59483112817e-05 -0.0981845605729 0
0.000874013470124 -0.103529983467 0
-0.000212490887117 -0.106689261771 0
9.23349742285e-06 -0.0998160967468 0
-0.00124115002776 -0.106125614275 0
0.0012334734723 -0.106129031741 0
0.00135904889456 -0.106429873828 0
0.0013991597074 -0.106564466634 0
-0.00140829881103 -0.10655803729 0
-0.000322844527915 -0.102799900628 0
-0.000201907761551 -0.100664804971 0
0.00112878604287 -0.105483674238 0
-0.00137217048971 -0.106448211807 0
0.000393809817814 -0.102798980317 0
-0.00114702957679 -0.105437839165 0
-0.000771239759293 -0.104293758082 0
-0.000397527748422 -0.10539427415 0
0.000382961459746 -0.105399724689 0
-0.000362200438648 -0.104433733722 0
0.000981408921597 -0.104446297103 0
0.000770166084838 -0.104351964069 0
-0.00113794010958 -0.106489314883 0
0.00112656800445 -0.106496325396 0
3.23323267928e-05 -0.0993748977342 0
0.000127958523659 -0.100564471203 0
-0.000568030350059 -0.0988475841601 0
0.000757401820653 -0.0996197157342 0
0.000711187456062 -0.101466355599 0
-0.000788927343516 -0.0996656236007 0
-0.000734529923031 -0.101539489807 0
-0.000907868363684 -0.104409733105 0
-4.12175755392e-05 -0.10479486216 0
0.000311895636448 -0.103598241789 0
-0.00122918002932 -0.105263741859 0
2.55341104741e-05 -0.104800083224 0
-0.000328267887545 -0.103603529066 0
-0.000229514708936 -0.101050309814 0
0.000281676211191 -0.105978632833 0
0.000211590136157 -0.100972105288 0
0.000847623895349 -0.105697488124 0
0.00120167321833 -0.1051503361 0
0.000458756829823 -0.107261620861 0
-0.00136441014229 -0.106321533108 0
0.00135482674916 -0.106330463373 0
0.000205875240636 -0.0981172104077 0
-0.000804020523188 -0.105122271216 0
0.000653141554438 -0.098883259722 0
0.000781833403031 -0.105128003809 0
0.00108817840275 -0.104537067921 0
0.00128358507819 -0.106587252634 0
-0.00129393886488 -0.106580138061 0
-0.00109894883698 -0.104532604072 0
-0.000875710663393 -0.105745960853 0
-8.62250404909e-05 -0.0994881917371 0
-0.00132819752527 -0.105738145349 0
-0.000973828038886 -0.103660145325 0
-0.00061199429141 -0.102942713427 0
0.00044969094534 -0.10428397883 0
-0.00144663097723 -0.106686792339 0
0.00143875534491 -0.106692725982 0
3.5450940358e-06 -0.103102809936 0
-0.00041919258421 -0.107327249151 0
0.00132029491462 -0.105767971849 0
-4.51379466888e-05 -0.099195028724 0
0.000964290558782 -0.103675828638 0
0.000694768314165 -0.102641600856 0
0.000219767850878 -0.10494361926 0
-0.00140683801677 -0.106300840106 0
0.00139892301813 -0.106305419306 0
0.000823423302909 -0.104946421701 0
0.0011200333287 -0.105959003167 0
-0.000632577152324 -0.102271214813 0
-0.0009560301884 -0.105509328803 0
0.000901701653231 -0.105519092066 0
-0.000610596472098 -0.105910102758 0
0.000597045344427 -0.105916440863 0
-8.29631505885e-05 -0.100237601022 0
0.000247844678883 -0.107246207294 0
-0.000527895297066 -0.107551291356 0
-0.000208601918531 -0.101851598538 0
-0.000418251613527 -0.0981450408567 0
0.000514555595701 -0.107568898921 0
0.000226401395622 -0.101820350359 0
9.41342520752e-05 -0.100488427595 0
-0.000292206388058 -0.107212332478 0
-0.000276657478685 -0.102216610957 0
-0.000453331857212 -0.104251866281 0
-0.000351391818467 -0.105901115105 0
0.000442784071412 -0.104242935037 0
0.000606725731572 -0.102658838262 0
-0.000625579280062 -0.102659883419 0
-0.000896510586031 -0.106283380762 0
0.00088407750573 -0.106290161361 0
-0.000148467344396 -0.100416303325 0
-7.02687292653e-06 -0.099860606823 0
0.000454929474144 -0.101791555507 0
-0.000466531676393 -0.101753629885 0
-0.00124014066056 -0.105831969259 0
-0.00067423368091 -0.104627105528 0
0.000711759821889 -0.103368953499 0
-0.00074370417167 -0.106782685076 0
0.00121572297662 -0.105842860171 0
0.00127428320021 -0.105681086266 0
0.000284712463172 -0.103523215353 0
-0.000736153438589 -0.103473269454 0
-0.00146145433978 -0.106629164244 0
0.00145316355752 -0.106635308005 0
0.000117323658617 -0.101548306903 0
0.000248453350612 -0.102224021782 0
-0.000301964007442 -0.103666003524 0
0.000554233269861 -0.107559579104 0
-2.2610477968e-05 -0.099566121359 0
0.00120713773488 -0.106982106306 0
-0.00120309375078 -0.10698956584 0
-0.000150693697803 -0.103294381362 0
0.000116534330114 -0.103332721522 0
-0.000588116845664 -0.107531435508 0
-0.00115060193301 -0.105864329243 0
-0.00114910978947 -0.105045468432 0
-0.00118668284107 -0.106429344952 0
-0.00090948805449 -0.107113540897 0
-0.00109742756128 -0.104751504512 0
0.00114644020254 -0.105087469753 0
0.000953694390004 -0.106792299127 0
0.000898870034371 -0.107128395475 0
0.00120439137326 -0.106341668981 0
-0.000192984728171 -0.101379527392 0
-0.000956399243996 -0.106768515386 0
-0.000339016133727 -0.101059338753 0
-6.44607784566e-05 -0.107333948295 0
-7.92945851556e-05 -0.104793690168 0
0.000641938857733 -0.103029308837 0
-0.000120908313528 -0.105188174017 0
0.000306955831754 -0.100985605868 0
0.00010562833537 -0.105193673334 0
0.00140394273068 -0.106597607096 0
0.000514607934473 -0.0983249668569 0
-0.00101412343727 -0.106107882557 0
0.00100209973394 -0.106114241698 0
-0.000426618608868 -0.105708458493 0
0.000412290930069 -0.105714476602 0
-0.000872194667756 -0.105076345671 0
-0.0012969950183 -0.105686319201 0
0.00013004804218 -0.0986370514799 0
-0.00038167040588 -0.105329107572 0
-0.000850968140591 -0.105808676249 0
0.000838274438136 -0.105814086575 0
-0.00141012619111 -0.106578919428 0
0.00136134534496 -0.106140650291 0
0.000620866423868 -0.102154005694 0
-0.00100929116011 -0.106437766743 0
0.000997321981818 -0.106444782331 0
0.000675605168654 -0.106943983454 0
-0.00136343438059 -0.106129817847 0
-0.00120806693308 -0.106596110497 0
0.00119711178674 -0.106603440778 0
0.000962490253056 -0.100421993957 0
0.000111366961653 -0.100430705333 0
0.00115123259075 -0.106950431342 0
-0.00115928207577 -0.106946464914 0
-0.000952212906759 -0.104390346415 0
0.00023055888949 -0.0992626555819 0
7.20644864707e-06 -0.101440305871 0
-9.1963145185e-05 -0.0986768596681 0
0.00118297302388 -0.104872245969 0
0.000944603015466 -0.104413274667 0
-0.000802745061625 -0.103001393025 0
-0.00087474066977 -0.0989672191022 0
-0.000951266397816 -0.100442152522 0
0.00120923207164 -0.105660579925 0
-0.00121947499556 -0.106296321321 0
0.00120893903379 -0.106302341694 0
0.000568817575898 -0.105845971588 0
-0.00119464606407 -0.104880186796 0
-0.000839473040532 -0.103195032394 0
0.00036241827615 -0.10287421563 0
-0.00062708440899 -0.105841136905 0
-6.07361311074e-05 -0.106431949054 0
0.000235720437354 -0.104340557076 0
-0.000251758699972 -0.104345879704 0
-0.000768345689961 -0.104744499155 0
0.000725825609724 -0.104751421543 0
-0.00139481777373 -0.106785464249 0
0.0013891008928 -0.106790526291 0
-0.000678059292031 -0.102348908201 0
0.000836286013411 -0.103279956392 0
-0.000434349840566 -0.102977427243 0
0.000737174892783 -0.10633228411 0
-0.000611081845669 -0.098370420449 0
0.000690943229324 -0.104371924755 0
0.00135594225454 -0.106623950551 0
-0.00136569112235 -0.106616840139 0
-0.000542368261519 -0.105169953921 0
-0.000290985898297 -0.0991054268381 0
0.000528301105406 -0.105175131234 0
-0.000484576035298 -0.101658111203 0
0.000308712567098 -0.106635263101 0
0.000350025372024 -0.107593187344 0
0.00110549662459 -0.104762081106 0
-0.00102417019017 -0.104172397301 0
0.00135808202896 -0.106450715446 0
-0.00136747249114 -0.106444634466 0
0.00128302719846 -0.106688292454 0
-0.00129383140625 -0.106672932728 0
-3.05899307284e-05 -0.0999691833808 0
0.00102626466279 -0.10525784081 0
0.000973808405491 -0.0990589875441 0
4.33643019597e-05 -0.0978544880507 0
3.54249799998e-05 -0.0997613146703 0
-0.00128707028739 -0.105672615478 0
-0.00102841452523 -0.105309068283 0
-0.000662633151579 -0.106091245384 0
0.000649330619627 -0.106097849726 0
0.000181516511818 -0.102834156151 0
0.000446481473437 -0.101533212961 0
-0.000250085803386 -0.0979700879694 0
0.000927603919174 -0.107240240277 0
-0.0011581001492 -0.106028749768 0
0.00114168703625 -0.106035644397 0
0.000967954043988 -0.103965810705 0
-0.00100624740418 -0.107173652718 0
-0.000330360713112 -0.10761784695 0
0.00127322461951 -0.105452810206 0
-0.00080757089713 -0.106398208108 0
-0.00028971837632 -0.101174293221 0
0.000858469723893 -0.10387969703 0
0.00101914090581 -0.104073862932 0
0.000618774000121 -0.102351939237 0
0.000850800759779 -0.10315089672 0
-0.000806224238537 -0.103864441456 0
-0.00129211398694 -0.106351352298 0
0.000414432293478 -0.100104673026 0
0.000109727682611 -0.101065767558 0
-0.00129721773606 -0.106283500923 0
0.00128681531673 -0.106294150402 0
-0.000762095097169 -0.106224051601 0
0.000749131820672 -0.106230832325 0
0.000209182009951 -0.100569836205 0
0.00106951118762 -0.105665544462 0
0.00101499009311 -0.105723368287 0
0.000275627008519 -0.101184161273 0
-0.0010386425474 -0.104088925417 0
-0.000356410420574 -0.102229120746 0
-0.00115471644123 -0.105718111474 0
-0.00122516467315 -0.106511085887 0
0.00121433924905 -0.10651805942 0
0.000106678860292 -0.107408129815 0
-0.000270556978327 -0.103773061984 0
-0.000237645506688 -0.104475951305 0
-0.00127885684419 -0.105442889023 0
0.000386705946149 -0.102225141204 0
-0.000459841121972 -0.100107409429 0
-0.00119010913791 -0.105506104897 0
0.000679232186005 -0.103821166993 0
0.000354260413708 -0.107671461308 0
0.000959286241447 -0.102108241736 0
0.000225464300125 -0.104482509604 0
-0.000365295196919 -0.106568887796 0
-5.34257907656e-05 -0.0997585015311 0
0.000286289091312 -0.103815981215 0
-0.00013514011225 -0.101333512785 0
0.000705258801516 -0.103272600245 0
-0.00100516979078 -0.102123512026 0
-0.000674778209655 -0.10382772757 0
-0.000722211839022 -0.103278318751 0
-8.72424689892e-06 -0.0993446809163 0
0.000137298251211 -0.101306188669 0
6.17384482731e-05 -0.0983623010363 0
0.00143146214827 -0.106634338499 0
-0.00144030819283 -0.106627628245 0
0.00119058648283 -0.100887542655 0
0.00117143884788 -0.0998780663568 0
-0.000121327307328 -0.107548614919 0
-0.00118145860042 -0.0998756148255 0
-0.00120143427959 -0.100914971037 0
0.000504522764371 -0.104116223786 0
0.000268219706001 -0.104680003772 0
-0.000255577615309 -0.100662214083 0
-0.000521051126175 -0.104121988315 0
-0.000284408179204 -0.104685351889 0
0.00131712020498 -0.10624245622 0
0.000612808983266 -0.106759251657 0
-0.00011766331375 -0.102695596569 0
0.000457215156049 -0.0979810729385 0
-0.000556500722348 -0.099267812718 0
0.000785570953562 -0.0983838651717 0
1.73869192544e-05 -0.100154738369 0
0.00127151061662 -0.106000198589 0
0.00135375266924 -0.10654191382 0
-0.00136342725392 -0.10653528525 0
-0.00102885486049 -0.105696631435 0
0.00140498583255 -0.106440389761 0
-0.00141369218078 -0.106434727537 0
0.00015829691975 -0.105539753421 0
-0.000722434062978 -0.10270882558 0
0.000220793489194 -0.107546315595 0
-0.000217750167367 -0.0984010660552 0
0.000453202571879 -0.103422465702 0
-0.000199434949403 -0.105536073924 0
0.000184419472176 -0.105541898468 0
-0.00132605758767 -0.106159835254 0
0.000574942911139 -0.102499468626 0
-0.000258786123225 -0.101942662538 0
-0.000395267760977 -0.101919723666 0
0.00105680727656 -0.106465031902 0
-0.00018164215843 -0.100561744242 0
-0.000601416370816 -0.102471451977 0
0.00055598952813 -0.0993618381096 0
1.01470379169e-05 -0.100310672941 0
-0.0013670620037 -0.106016024294 0
-0.000488454858065 -0.104010135807 0
-0.000102454199933 -0.0991827765199 0
-0.000166790517726 -0.104159883045 0
-0.000519615952402 -0.103221798645 0
0.000259501001774 -0.103002352733 0
-0.000327085825668 -0.105112234091 0
0.000312465499311 -0.105117649825 0
-0.000273945146705 -0.103005511801 0
0.00019594534764 -0.102325359278 0
0.000145646489427 -0.0989531011036 0
0.000386463454413 -0.102160513398 0
0.0014140135905 -0.10645686483 0
-0.00142104906734 -0.106443950614 0
-0.000322720436296 -0.107697320665 0
0.000361769882658 -0.101953271854 0
0.00135727532727 -0.10601289795 0
5.50560886565e-05 -0.0989984576034 0
-0.000872445935198 -0.0985751515901 0
-0.00119502217495 -0.106408455157 0
0.00118393548198 -0.106415135258 0
-0.00107567787925 -0.106560355545 0
0.00106400392076 -0.106567665138 0
-0.000368965643271 -0.0987280912254 0
-0.00124133267412 -0.105470325802 0
0.000398511283764 -0.1011803696 0
0.00126534357112 -0.106560544474 0
0.000720937055612 -0.102958230401 0
-0.000224565132846 -0.100778388173 0
0.00131627641191 -0.106166480476 0
-0.00125205121332 -0.106640577437 0
0.00124137978263 -0.10664807334 0
0.000343165054128 -0.105389080647 0
0.00096370288619 -0.104898085963 0
2.52622882336e-06 -0.103709685891 0
-0.00112624791832 -0.106179756428 0
0.00111489503412 -0.106185841368 0
-0.000816180150064 -0.105404180294 0
-0.000104845456641 -0.100713691778 0
0.000787683668568 -0.105420517508 0
0.00058570946652 -0.102137458881 0
0.000319461903534 -0.0983322327394 0
-0.00117829684953 -0.104866934855 0
-1.54210309628e-05 -0.103726778528 0
-0.000558492140287 -0.105397417864 0
0.000544278646662 -0.105402558943 0
0.000737978738622 -0.105420848579 0
-0.00087995029025 -0.104604111293 0
-0.0003392980865 -0.10773622474 0
-0.000889159687853 -0.106393832151 0
0.000876709048724 -0.10640084363 0
0.000381863211918 -0.0989333166859 0
5.49626460333e-05 -0.105055212255 0
-7.07790605217e-05 -0.105060607665 0
-0.000301214341581 -0.101594925716 0
-0.000344829851852 -0.101070309569 0
-0.000267999919564 -0.107482812396 0
-0.000607857767484 -0.104537776669 0
-0.000515718386507 -0.104823872984 0
0.00121806086877 -0.105401743281 0
0.000248566853619 -0.104422980927 0
0.000593861285198 -0.104564769517 0
0.000303546289159 -0.101545274335 0
0.00143242513583 -0.106558710437 0
-0.00144088875714 -0.106552850762 0
-0.000843630570518 -0.103975557434 0
-0.000936396145356 -0.105967423111 0