# vtk DataFile Version 2.0
Generated with Solid Solver
ASCII
DATASET UNSTRUCTURED_GRID
POINTS 999 float 
0.2 4.325 0.0
1.4 4.325 0.0
1.4 4.825 0.0
0.2 4.825 0.0
1.4 4.34523264049 0.0
1.4 4.36751203886 0.0
1.4 4.39204525371 0.0
1.4 4.4190602782 0.0
1.4 4.44880817466 0.0
1.4 4.48156541084 0.0
1.4 4.51763640748 0.0
1.4 4.5573564007 0.0
1.4 4.60109451608 0.0
1.4 4.64925723872 0.0
1.4 4.70229217343 0.0
1.4 4.76069218095 0.0
1.33333333333 4.825 0.0
1.26666666667 4.825 0.0
1.2 4.825 0.0
1.13333333333 4.825 0.0
1.06666666667 4.825 0.0
1.0 4.825 0.0
0.933333333334 4.825 0.0
0.866666666668 4.825 0.0
0.800000000001 4.825 0.0
0.733333333334 4.825 0.0
0.666666666668 4.825 0.0
0.600000000001 4.825 0.0
0.533333333334 4.825 0.0
0.466666666667 4.825 0.0
0.4 4.825 0.0
0.333333333334 4.825 0.0
0.266666666667 4.825 0.0
0.2 4.76069218095 0.0
0.2 4.70229217343 0.0
0.2 4.64925723872 0.0
0.2 4.60109451608 0.0
0.2 4.5573564007 0.0
0.2 4.51763640748 0.0
0.2 4.48156541084 0.0
0.2 4.44880817466 0.0
0.2 4.4190602782 0.0
0.2 4.39204525371 0.0
0.2 4.36751203886 0.0
0.2 4.34523264049 0.0
0.212131543907 4.30926329506 0.0
0.224675715302 4.29385348652 0.0
0.23762369102 4.27878141198 0.0
0.250966423879 4.26405760374 0.0
0.264694484585 4.24969246611 0.0
0.278798324214 4.23569599189 0.0
0.293267939266 4.22207810803 0.0
0.308093289028 4.20884826442 0.0
0.323263842145 4.19601585877 0.0
0.338769084145 4.18358978512 0.0
0.354597997314 4.17157887342 0.0
0.37073960121 4.15999145532 0.0
0.387182441982 4.14883575334 0.0
0.403915091795 4.13811952025 0.0
0.420925712897 4.12785033813 0.0
0.438202430937 4.11803537461 0.0
0.455733079095 4.10868154223 0.0
0.473505374364 4.09979539439 0.0
0.491506842655 4.09138316882 0.0
0.509724826085 4.0834507802 0.0
0.528146580414 4.07600377808 0.0
0.546759103951 4.06904741762 0.0
0.56554943677 4.06258654322 0.0
0.584504260001 4.05662573401 0.0
0.60361041518 4.0511691282 0.0
0.622854334779 4.04622060039 0.0
0.642222678753 4.04178358113 0.0
0.661701681839 4.03786122392 0.0
0.681277836375 4.03445624851 0.0
0.700937245817 4.03157107217 0.0
0.720666255912 4.02920769845 0.0
0.740450894784 4.02736780161 0.0
0.76027736978 4.02605266363 0.0
0.780131702711 4.02526321235 0.0
0.799999999998 4.025 0.0
0.819868297285 4.02526321235 0.0
0.839722630216 4.02605266363 0.0
0.859549105212 4.02736780161 0.0
0.879333744085 4.02920769845 0.0
0.89906275418 4.03157107217 0.0
0.918722163621 4.03445624851 0.0
0.938298318157 4.03786122392 0.0
0.957777321244 4.04178358113 0.0
0.977145665218 4.04622060039 0.0
0.996389584817 4.0511691282 0.0
1.01549574 4.05662573401 0.0
1.03445056323 4.06258654322 0.0
1.05324089605 4.06904741762 0.0
1.07185341958 4.07600377808 0.0
1.09027517391 4.0834507802 0.0
1.10849315734 4.09138316882 0.0
1.12649462563 4.09979539439 0.0
1.1442669209 4.10868154222 0.0
1.16179756906 4.1180353746 0.0
1.1790742871 4.12785033813 0.0
1.1960849082 4.13811952024 0.0
1.21281755802 4.14883575334 0.0
1.22926039879 4.15999145532 0.0
1.24540200269 4.17157887342 0.0
1.26123091585 4.18358978512 0.0
1.27673615785 4.19601585877 0.0
1.29190671097 4.20884826442 0.0
1.30673206073 4.22207810803 0.0
1.32120167579 4.23569599189 0.0
1.33530551541 4.24969246611 0.0
1.34903357612 4.26405760374 0.0
1.36237630898 4.27878141198 0.0
1.3753242847 4.29385348652 0.0
1.38786845609 4.30926329506 0.0
1.05632730172 4.46025283906 0.0
0.549964048968 4.4630053958 0.0
0.806135520676 4.31186690218 0.0
0.603895783049 4.26079310371 0.0
1.22984770884 4.38318704125 0.0
0.3703382852 4.38423552752 0.0
0.995322815839 4.25565031136 0.0
0.728315816804 4.1765935937 0.0
0.872128173905 4.17288724072 0.0
1.14059401893 4.27298468684 0.0
0.461553191009 4.27181671009 0.0
0.784706775856 4.56821390922 0.0
0.398287125272 4.57945970538 0.0
1.20625306554 4.58334743514 0.0
0.624100842742 4.1589824436 0.0
0.5257453845 4.18811776279 0.0
0.978502430793 4.15488737058 0.0
1.07419209812 4.18825154482 0.0
0.364313698077 4.28677035763 0.0
1.23509538257 4.28681716733 0.0
0.68124123937 4.39284548972 0.0
1.31679378691 4.35012066749 0.0
0.283206213094 4.35012066749 0.0
0.791498533126 4.11467141721 0.0
0.931481076052 4.3801344917 0.0
0.966719065571 4.62778042839 0.0
0.684451667517 4.11068036752 0.0
0.618335406951 4.62686910993 0.0
0.450982331762 4.19686171732 0.0
0.915674266355 4.10995633851 0.0
1.14900051594 4.19689012964 0.0
1.30193709687 4.4481448133 0.0
0.298574667609 4.44816296922 0.0
1.05734787542 4.34990107617 0.0
0.539273225177 4.35252599628 0.0
0.709896798149 4.27721026287 0.0
0.895708916005 4.26924194389 0.0
0.813273511364 4.43835766235 0.0
0.559289631452 4.13230879113 0.0
1.04001407307 4.13281539633 0.0
0.801161810585 4.23146244955 0.0
0.665113819616 4.52056650186 0.0
0.852577362173 4.09111846388 0.0
0.390256727869 4.2242806298 0.0
1.20974450479 4.22428104599 0.0
0.921542541183 4.52778058719 0.0
1.14030889032 4.36437344809 0.0
1.15600477272 4.46808538305 0.0
0.435243219029 4.4750581257 0.0
0.462045157798 4.36654654286 0.0
0.735806812738 4.08472269746 0.0
1.30082934537 4.29793772796 0.0
0.299170654625 4.29793772796 0.0
0.533651712118 4.26265983853 0.0
0.666130919144 4.21652131559 0.0
1.0676097303 4.26179469382 0.0
1.08054433577 4.58530946155 0.0
0.506773767255 4.56568295079 0.0
0.626745312844 4.10124420826 0.0
0.933845304214 4.2106954732 0.0
0.293717639664 4.55175000185 0.0
0.312505022079 4.66426411351 0.0
1.3058164124 4.55154930624 0.0
1.29054387065 4.66302765963 0.0
0.973467966326 4.09941619478 0.0
0.487935413164 4.15087084015 0.0
0.461549079751 4.68836834982 0.0
1.11203248746 4.15093503889 0.0
1.14453515393 4.70617370303 0.0
0.840217564202 4.68891146633 0.0
0.585347033288 4.20539048534 0.0
0.619177396637 4.34227576306 0.0
0.331644410315 4.24962190462 0.0
1.26835558968 4.24962190462 0.0
1.01536156978 4.19987473052 0.0
0.809331033562 4.07065709122 0.0
0.982321540791 4.33437358971 0.0
0.725600576914 4.66999651799 0.0
0.812291456186 4.16642942492 0.0
0.335887692543 4.33918235669 0.0
1.26344844681 4.34017131907 0.0
1.23449730504 4.49457441524 0.0
1.34334172095 4.40539551957 0.0
0.256658279045 4.40539551957 0.0
0.741646926828 4.34287908527 0.0
0.674799084703 4.16673768522 0.0
1.18647435526 4.30955189749 0.0
0.360563250283 4.49596479569 0.0
0.873716483853 4.33845499203 0.0
0.418704489949 4.31146264283 0.0
0.492670911224 4.22931614809 0.0
0.403480880356 4.19046776931 0.0
1.19651541215 4.1904686246 0.0
0.728649253738 4.46214546491 0.0
1.00883674467 4.40174664879 0.0
1.11035034557 4.23161841276 0.0
0.261968539765 4.3130079512 0.0
1.33803146023 4.3130079512 0.0
0.74649980488 4.1318354354 0.0
0.927597725248 4.1577597079 0.0
0.892956618256 4.07619338913 0.0
0.659794281787 4.07951387326 0.0
0.587663534405 4.09486537006 0.0
0.942353209926 4.07935300973 0.0
1.01493747319 4.09476013719 0.0
0.613130017774 4.41369803882 0.0
0.449373501074 4.15377191978 0.0
0.514840228377 4.12225850006 0.0
0.497057592 4.41333092106 0.0
1.15061382426 4.15379293084 0.0
1.08514419473 4.12228328152 0.0
0.745617635771 4.23098957592 0.0
0.87523452213 4.59853036549 0.0
0.855262884783 4.2258970831 0.0
1.01126200032 4.53280064162 0.0
1.09391916408 4.40632408872 0.0
1.04436265455 4.71482000827 0.0
0.314320181089 4.38773968607 0.0
1.28649331902 4.38743720145 0.0
0.771211579291 4.06316862024 0.0
0.432259099658 4.24006002157 0.0
0.698583889427 4.07144353526 0.0
1.16802128371 4.238862881 0.0
1.09587629216 4.3086676659 0.0
1.35920470355 4.35666960471 0.0
0.240795296449 4.35666960471 0.0
0.504003580654 4.30815758118 0.0
0.579942709371 4.5342075073 0.0
0.875915224914 4.12815792528 0.0
0.426503136644 4.40717733008 0.0
0.57541416445 4.30365301522 0.0
0.683877978289 4.33161848113 0.0
0.888061695889 4.44633509246 0.0
0.26012287522 4.49859249103 0.0
1.33987712478 4.49859249103 0.0
0.801393572636 4.37060096582 0.0
0.558460082533 4.72496728209 0.0
1.1741923373 4.41132830101 0.0
0.83220012886 4.12779415912 0.0
1.02815069622 4.30053276509 0.0
0.948308583502 4.2880204454 0.0
0.846588933095 4.50834596945 0.0
0.343666800815 4.43485820652 0.0
1.25632767671 4.43480360053 0.0
0.97849585731 4.47031535602 0.0
1.10170977548 4.51507265998 0.0
0.662193131828 4.26809398492 0.0
0.400503668388 4.26881657105 0.0
1.20117145985 4.26130427377 0.0
0.350957892513 4.21796558019 0.0
1.24904210749 4.21796558019 0.0
0.771964652188 4.18905379403 0.0
0.932165148285 4.72736281402 0.0
0.373672364094 4.73321357765 0.0
0.760245937722 4.28409350779 0.0
0.848718469252 4.05767763075 0.0
1.23385612561 4.7358294747 0.0
0.846421485813 4.28065918421 0.0
0.651597058631 4.13043284014 0.0
0.650489852552 4.72138045504 0.0
0.58457834847 4.16375088261 0.0
0.48701309933 4.18859927013 0.0
0.708495738406 4.58856947756 0.0
1.11203398596 4.18878062515 0.0
0.54865558244 4.10250047869 0.0
1.05126102377 4.10234629471 0.0
0.300013757486 4.26259646442 0.0
1.29998624251 4.26259646442 0.0
0.9465032388 4.12718070354 0.0
0.708587583337 4.14146095907 0.0
0.973348904468 4.19537871864 0.0
0.628721855632 4.19538356945 0.0
0.380175010018 4.34021880077 0.0
0.662092932411 4.45899041267 0.0
1.05133526787 4.22221992007 0.0
0.528087045766 4.64327882187 0.0
1.22233124543 4.33521693908 0.0
1.19001193434 4.36273586668 0.0
0.853024099244 4.39544003492 0.0
0.542800296246 4.22324366905 0.0
0.247706318737 4.45239119247 0.0
1.35229368126 4.45239119247 0.0
0.599153768578 4.12953797005 0.0
1.01616570494 4.16227683178 0.0
0.744705786938 4.40569544575 0.0
1.31929001115 4.73702550052 0.0
0.777615355331 4.15113602511 0.0
1.33132411895 4.60631378639 0.0
0.265621610877 4.60975488866 0.0
0.532023338888 4.15374454388 0.0
1.0697792195 4.15241429251 0.0
0.286371037106 4.73010312914 0.0
0.497725885905 4.50153668256 0.0
0.46053455822 4.31587947599 0.0
0.433799237968 4.54629400991 0.0
0.388624781906 4.65094200004 0.0
0.554823673752 4.40451940232 0.0
1.1421595646 4.31818301431 0.0
1.14760043966 4.61655103139 0.0
1.21258698805 4.65320200685 0.0
1.16279096046 4.53292621409 0.0
0.995762647814 4.12508772517 0.0
0.456229040627 4.61456685246 0.0
0.707289391156 4.21520271873 0.0
0.763036833302 4.74285445535 0.0
0.78386198569 4.49787013126 0.0
[...]
POINT_DATA 999
VECTORS Displacement float
-0.000580468601654 -0.07141321983 0
0.000571904244566 -0.071419052985 0
0.0 -0.072 0
0.0 -0.072 0
0.000603922862307 -0.0714160638218 0
0.00063516167372 -0.0714115275031 0
0.000663020070084 -0.0714055922686 0
0.000685953219769 -0.0714010139303 0
0.000698032298651 -0.0713995000604 0
0.000703307106533 -0.0714027974267 0
0.00069164842307 -0.0714125139412 0
0.000661265781942 -0.0714305782153 0
0.000609165570757 -0.0714644940577 0
0.000526347884572 -0.0715193075974 0
0.000409326953942 -0.0716071510022 0
0.000244452107037 -0.071747605949 0
0.0 -0.072 0
0.0 -0.072 0
0.0 -0.072 0
0.0 -0.072 0
0.0 -0.072 0
0.0 -0.072 0
0.0 -0.072 0
0.0 -0.072 0
0.0 -0.072 0
0.0 -0.072 0
0.0 -0.072 0
0.0 -0.072 0
0.0 -0.072 0
0.0 -0.072 0
0.0 -0.072 0
0.0 -0.072 0
0.0 -0.072 0
-0.000243928926941 -0.0717476638605 0
-0.000409619350951 -0.0716065895964 0
-0.00053216591774 -0.0715171825848 0
-0.000613229393284 -0.0714606566883 0
-0.000665529940679 -0.0714259242817 0
-0.000696912424402 -0.0714074024422 0
-0.000709269609835 -0.071397605548 0
-0.000704519654046 -0.071394159605 0
-0.000692919828571 -0.0713955235266 0
-0.000670438500459 -0.071399963168 0
-0.000643007635726 -0.0714057931866 0
-0.000612156664044 -0.0714102618705 0
-0.000554428123836 -0.0713970188282 0
-0.000525761850232 -0.0713794192593 0
-0.000494581669467 -0.0713590321369 0
-0.000460364499118 -0.0713357917711 0
-0.000423419071974 -0.0713087422439 0
-0.000384670575098 -0.0712772114748 0
-0.000343858604915 -0.0712417872181 0
-0.000299591426155 -0.0712019977288 0
-0.000252824639928 -0.0711552451963 0
-0.000205353468123 -0.071104991665 0
-0.00015536010237 -0.0710482318813 0
-0.000102083205263 -0.070985262856 0
-4.79402662833e-05 -0.0709144109889 0
8.68770256814e-06 -0.0708365711533 0
6.71189587469e-05 -0.0707507037168 0
0.000128047999825 -0.070655347793 0
0.000189716013865 -0.0705495644293 0
0.000255522177666 -0.0704329252323 0
0.00032129368161 -0.0703027598021 0
0.000391469989817 -0.0701567615303 0
0.000460344591206 -0.0699938088712 0
0.00053736132115 -0.069809477741 0
0.000611538137102 -0.0695970672721 0
0.000696667155479 -0.0693479422541 0
0.0007776315489 -0.069056630821 0
0.000875771309304 -0.0685753499806 0
0.000906532360829 -0.0681201107473 0
0.000886324843567 -0.0677041304227 0
0.000833280852362 -0.0673475611535 0
0.000741421760921 -0.0670298946974 0
0.000627639419257 -0.0667732816945 0
0.000484247664874 -0.0665660185031 0
0.000332730171337 -0.0664178037602 0
0.00017038831958 -0.0663304113544 0
-1.49200446517e-05 -0.0662985232906 0
-0.000187873144949 -0.0663286234894 0
-0.000354224186387 -0.0664206254229 0
-0.000506784523272 -0.0665668617707 0
-0.000643265292438 -0.0667714552494 0
-0.000757885094912 -0.067031024626 0
-0.000853079642121 -0.0673481407578 0
-0.000912347448737 -0.0677169672046 0
-0.000920877555249 -0.0681268803364 0
-0.00088960510363 -0.0685761325726 0
-0.000793291822536 -0.0690571670382 0
-0.000712237977975 -0.0693509235019 0
-0.000626746897696 -0.0696004667531 0
-0.000551705403672 -0.0698119792858 0
-0.000474685389361 -0.0699962030854 0
-0.000405386390926 -0.0701595862092 0
-0.000334981265677 -0.070305808326 0
-0.00026892063309 -0.0704362164826 0
-0.000202780448586 -0.0705530690165 0
-0.000140790164972 -0.0706590146074 0
-7.95623203551e-05 -0.0707545139594 0
-2.08460328542e-05 -0.0708405169027 0
3.60475262018e-05 -0.0709184955493 0
9.04482609715e-05 -0.0709895026336 0
0.000143990376706 -0.0710526414707 0
0.000194263621602 -0.0711095700408 0
0.000242027655285 -0.071159981718 0
0.000289072524887 -0.0712068649666 0
0.000333599787576 -0.0712467621639 0
0.000374656996268 -0.0712822936397 0
0.000413652449545 -0.0713139346185 0
0.000450836421365 -0.071341092662 0
0.000485290323844 -0.0713644486873 0
0.00051670873169 -0.0713849593054 0
0.000545615061117 -0.0714026945137 0
0.000541009844963 -0.0707472232906 0
-0.000536605047331 -0.0707367990069 0
1.40596958539e-05 -0.0691747582082 0
-0.000463700871155 -0.0696364591257 0
0.000646396940816 -0.0711032111229 0
-0.000653673038308 -0.0711003058396 0
0.000448185937861 -0.0696079324387 0
-0.000170954617404 -0.0681275406527 0
0.000152129441361 -0.0680981159816 0
0.000496813421954 -0.0706144643908 0
-0.000504303617797 -0.0705976307048 0
-3.27316453182e-05 -0.0708622145173 0
-0.000554968527259 -0.07141191461 0
0.000547808071693 -0.0714288210354 0
-0.000232575457256 -0.0689895326263 0
-0.000284972267423 -0.0700626878208 0
0.000199834750368 -0.0690091222787 0
0.000274643640401 -0.0700645984826 0
-0.000517884644621 -0.0710344289 0
0.000508598365918 -0.0710362793559 0
-0.000337327033719 -0.0699755585632 0
0.000613951427461 -0.0712829551959 0
-0.000621944397344 -0.0712782640691 0
-7.85411591871e-06 -0.0672405694722 0
0.000363989816044 -0.0699413381002 0
0.000263684809276 -0.0712592630154 0
4.66951707072e-06 -0.0679224179746 0
-0.000288640815647 -0.07127061975 0
-0.000274663588885 -0.0705919750343 0
-2.28062651239e-05 -0.0679203502708 0
0.000263855929025 -0.0705954174258 0
0.000687015256399 -0.0713205835947 0
-0.00069304013304 -0.0713161853833 0
0.000563079334513 -0.0703544527169 0
-0.00057367358371 -0.0703772728946 0
-0.000280924883765 -0.0690853916661 0
0.000284361293943 -0.0690519713955 0
3.51791005134e-05 -0.070098044159 0
-3.13347842776e-05 -0.0696868382098 0
2.26025687063e-05 -0.0696812715237 0
-3.01099132614e-06 -0.0684632498122 0
-0.000305154246152 -0.0707179814512 0
-8.58445992934e-05 -0.0671416157852 0
-0.000355154119241 -0.0709089446197 0
0.00034464195161 -0.070913011069 0
0.000268971940778 -0.0707340236009 0
0.000614682115617 -0.0707703824225 0
0.000625306482488 -0.0710603991654 0
-0.000634490749988 -0.0710959590437 0
-0.00062184053171 -0.0707617941535 0
0.000114836021281 -0.0671536186201 0
0.000525924187877 -0.071234118393 0
-0.000534902409128 -0.0712293797155 0
-0.000495203218063 -0.0701442746549 0
-0.000340844761582 -0.0689071677736 0
0.000483335531669 -0.0701540176853 0
0.000449324122296 -0.0712502139749 0
-0.000490106031995 -0.0712043901077 0
0.000103761002822 -0.0687099758542 0
0.000320897107992 -0.0688695428804 0
-0.000641984261719 -0.0714472174825 0
-0.00044243911933 -0.0716480674728 0
0.000638173587829 -0.0714501085952 0
0.000445182651138 -0.0716472575827 0
-0.00013579954255 -0.0687063530837 0
-7.82582008907e-05 -0.070333735728 0
-0.000325131655406 -0.0716353635043 0
6.63178925899e-05 -0.0703367971077 0
0.000291359839033 -0.0716908654422 0
5.10353047454e-05 -0.0714556650229 0
-0.000375953995072 -0.0695726276976 0
-0.000478760255561 -0.0699383478264 0
-0.000422567683901 -0.0711305405724 0
0.000412706826768 -0.0711351127994 0
0.000348134674599 -0.0695620415338 0
-3.9946908988e-05 -0.0667573213765 0
0.000471516942415 -0.0699091656362 0
-0.000105332438215 -0.071380980406 0
1.90739721617e-05 -0.0678118053937 0
-0.000608739321687 -0.0711522816542 0
0.000601891397372 -0.0711553111598 0
0.000654079651602 -0.0712836698933 0
0.000673734232856 -0.071345553626 0
-0.000680802079167 -0.0713408781109 0
-0.000185315224449 -0.0694824415906 0
-0.000234946300155 -0.0684752684545 0
0.000558641637989 -0.070870585086 0
-0.000662004490707 -0.0712910229898 0
0.00022414020632 -0.0694880185423 0
-0.000571020060903 -0.0708484748297 0
-0.00040904951306 -0.0703585695209 0
-0.000233799534766 -0.0708415518379 0
0.000222650835692 -0.0708453416208 0
-0.000188873798845 -0.0702976411305 0
0.000503394441766 -0.0703432572033 0
0.000403892067087 -0.070384161955 0
-0.000562024657372 -0.0713123051092 0
0.000553276754198 -0.0713173649191 0
-5.59332844369e-05 -0.0675750263543 0
0.000199817233775 -0.068435004691 0
-0.000246132435197 -0.0673431571639 0
0.000279979727534 -0.0680284577168 0
0.000225053867895 -0.0693092478213 0
-0.000298508616012 -0.0680697332875 0
-0.000243885449279 -0.069348536368 0
-0.000469394143604 -0.0703164482697 0
-7.6181005097e-05 -0.0705909528083 0
8.23132154757e-05 -0.0701163646682 0
-0.000611529022565 -0.0707457863303 0
6.42121342921e-05 -0.0705944228021 0
-9.56709885862e-05 -0.0701189398336 0
-0.000169556230503 -0.0685557002591 0
0.000139760139355 -0.0710426851452 0
0.000159830877671 -0.0685134653506 0
0.00041999737299 -0.0709236703376 0
0.00059776702261 -0.0706937721231 0
0.000222766337769 -0.0716561643004 0
-0.000662509489383 -0.0712373016328 0
0.000655143109081 -0.0712428395953 0
0.000104926241516 -0.0667263542186 0
-0.00041618121988 -0.070719763333 0
0.000292478591171 -0.067398011125 0
0.000401866442713 -0.0707237228481 0
0.000553728309123 -0.0704352483254 0
0.000622680485691 -0.0713563158661 0
-0.00063066377858 -0.071351154323 0
-0.000562600397132 -0.0704324956174 0
-0.000434791899799 -0.0709473271396 0
5.10567499259e-05 -0.0676872828019 0
-0.000651056521564 -0.0709715132015 0
-0.000523760753677 -0.0700055231978 0
-0.000347283175179 -0.0695816485478 0
0.000233827094445 -0.0702274419726 0
-0.000693646404681 -0.0713971049258 0
0.000687808777006 -0.0714013195945 0
1.0219435253e-06 -0.0696280652575 0
-0.000203971711124 -0.0716863988103 0
0.000644343778739 -0.0709858593498 0
1.76006073778e-05 -0.0674349940973 0
0.00051535219175 -0.0700171342893 0
0.000404702982812 -0.0694647963458 0
0.00011138910523 -0.0705430924899 0
-0.000680764587288 -0.0712265690783 0
0.000674564638781 -0.0712299330197 0
0.000416507563829 -0.0705654102158 0
0.000547875105732 -0.0710581992613 0
-0.000387848677044 -0.0692771878464 0
-0.000483295815179 -0.0708854785874 0
0.000454727917405 -0.0708917688574 0
-0.000328678387361 -0.0710623128107 0
0.000318229711529 -0.0710667322801 0
-7.94642537192e-05 -0.0680717405646 0
0.000121297837715 -0.0716458354109 0
-0.000252561995124 -0.0717931356437 0
-0.000133327912513 -0.0689824205135 0
-0.000230554492613 -0.0667719970065 0
0.000245572685462 -0.0718015605523 0
0.000143506823784 -0.0689691498614 0
-0.0001069308535 -0.0684903726613 0
-0.000143395572672 -0.0716303167398 0
-0.000230336278154 -0.0694588630048 0
-0.00026084824224 -0.0703568699723 0
-0.00017587423522 -0.0710066036724 0
0.000250987782489 -0.0703541201502 0
0.000209442542461 -0.0697907871048 0
-0.000223702478817 -0.0697921807969 0
-0.000455395011635 -0.0712234240316 0
0.000445803140741 -0.0712282456371 0
7.356670319e-05 -0.0684494718914 0
-0.000120937296584 -0.0679440217409 0
0.000332458877732 -0.0691394696641 0
-0.000343644901964 -0.069116773355 0
-0.000610122972558 -0.0710217413762 0
-0.000347185276473 -0.0704035470089 0
0.000399410180214 -0.069938590551 0
-0.00036231576905 -0.0714340444647 0
0.00059560935651 -0.0710283451592 0
0.000623850491934 -0.070952564045 0
0.00015356336168 -0.0698456804702 0
-0.000411294016099 -0.0699856291691 0
-0.000702763625593 -0.0713714445225 0
0.000696409259729 -0.0713759391844 0
-6.53131320707e-05 -0.0692033292954 0
0.000211685407942 -0.0694668921122 0
-0.000163435847428 -0.0699170908475 0
0.000262826792227 -0.0717965197233 0
-4.42933733268e-05 -0.0676613851715 0
0.000574644883204 -0.0715315539268 0
-0.00057390073872 -0.0715337631056 0
-0.000130012191442 -0.0699753020457 0
0.000108576392675 -0.0699926517291 0
-0.000279607352056 -0.0717832332193 0
-0.000565356972662 -0.0710145692631 0
-0.000576936015526 -0.0706695501561 0
-0.000575230328863 -0.0712782239221 0
-0.000436726385728 -0.07159205806 0
-0.000557138901051 -0.070496593682 0
0.000571713732189 -0.0706892184278 0
0.000460302057435 -0.0714432813029 0
0.000430608471027 -0.0715994159914 0
0.000582945779481 -0.0712389732689 0
3.01542963529e-05 -0.0691259410909 0
-0.000462972586156 -0.0714317064345 0
-0.000260877652958 -0.0686048753142 0
-3.19214259362e-05 -0.0716859072609 0
-4.13724494939e-05 -0.0704689548756 0
0.000358901474486 -0.069628984054 0
-0.000112400536093 -0.0707551783537 0
0.000242914993521 -0.0685654418297 0
0.000100678585937 -0.0707589214561 0
0.000672835301868 -0.0713596685098 0
0.000269302652142 -0.0669280123346 0
-0.000507580942281 -0.0711464873712 0
0.000498315844002 -0.0711509683299 0
-0.00024737575324 -0.070975883391 0
0.00023638417802 -0.0709800618359 0
-0.000440943365594 -0.070629402829 0
-0.000637264483848 -0.0709526818529 0
3.55317457161e-05 -0.0670760143897 0
-0.00019341400739 -0.0707322992528 0
-0.000435271567606 -0.0710172003482 0
0.000425458196911 -0.0710211436606 0
-0.000678185608645 -0.0713501724999 0
0.000658904310605 -0.0711536485841 0
0.000389897700846 -0.0692457085416 0
-0.000505260641331 -0.0712902795492 0
0.000496038318122 -0.0712953192932 0
0.00032790248929 -0.0715095845749 0
-0.000662162184352 -0.0711473854638 0
-0.000592816227029 -0.0713584950537 0
0.00058438057387 -0.0713638149105 0
0.000347186097206 -0.0687255553029 0
0.000102087385172 -0.0681930274149 0
0.000550190388567 -0.0715187028732 0
-0.000555323492924 -0.0715160500672 0
-0.000494307615187 -0.0703864703492 0
2.02055953099e-05 -0.0675789732748 0
4.33467502276e-06 -0.068751158276 0
-2.89773731048e-05 -0.0670910890094 0
0.000593427481703 -0.0705778495981 0
0.000486624635079 -0.070397176994 0
-0.0004536240272 -0.0696539809357 0
-0.00043154703616 -0.0675118627048 0
-0.000343990572589 -0.06873165198 0
0.000593862575045 -0.0709249331032 0
-0.000598471422191 -0.0712276105596 0
0.000590267830864 -0.0712319955077 0
0.000282450107754 -0.070985060471 0
-0.000601716692091 -0.0705809194752 0
-0.000472114353256 -0.0698146708945 0
0.000241125433156 -0.0697634336541 0
-0.000312518098234 -0.0709838419146 0
-3.06340107359e-05 -0.0712575552039 0
4.51267061053e-05 -0.0704065678058 0
-5.76812657861e-05 -0.0704097541089 0
-0.000402461952491 -0.0705564285089 0
0.000378642531585 -0.0705617046299 0
-0.000667031808523 -0.0714408506384 0
0.000662501913415 -0.071444566291 0
-0.000420171442374 -0.0693755839043 0
0.000463757340111 -0.0698575105441 0
-0.00027833816158 -0.069801554026 0
0.000361375963893 -0.0712209982399 0
-0.000327977799215 -0.0669769531734 0
0.000357070727831 -0.0702823615976 0
0.000654574263281 -0.0713718729176 0
-0.000662097838251 -0.0713666979862 0
-0.000297925105647 -0.0707446945068 0
-6.75310721711e-05 -0.0674690033561 0
0.000287102529984 -0.0707482766854 0
-0.000325413812382 -0.0689418975608 0
0.000151969877591 -0.0713564061979 0
0.000168869772204 -0.0718114706515 0
0.000558282972583 -0.0705052509499 0
-0.000534013255184 -0.0702250871593 0
0.000656071675107 -0.0712959979973 0
-0.000663374089063 -0.0712915885718 0
0.00061527868349 -0.0713998691591 0
-0.000622168210504 -0.0713920681136 0
0.000110888200808 -0.0680476715582 0
0.000513440383512 -0.0707736129076 0
0.000486175970303 -0.0676149015644 0
2.38627992422e-05 -0.0665385363921 0
7.56016411847e-05 -0.0678005926623 0
-0.000632493377046 -0.0709355526529 0
-0.000517611622932 -0.070795588465 0
-0.000351887005005 -0.0711405956654 0
0.000341624335975 -0.0711452390955 0
0.000102243643047 -0.0694932678337 0
0.000307301678342 -0.0688788832394 0
-0.000143594235965 -0.0666255624434 0
0.000440131140745 -0.0716488785838 0
-0.000572036554088 -0.0711105676292 0
0.000561086686848 -0.0711152147539 0
0.000507631259088 -0.0701240616877 0
-0.00047890604901 -0.0716177115977 0
-0.00015963079525 -0.0718227247535 0
0.000626660300835 -0.0708404304664 0
-0.00039594811173 -0.0712537107675 0
-0.000276594444058 -0.0688136300316 0
0.000453224382591 -0.0700641095819 0
0.000531103243383 -0.0702195755478 0
0.000390148034835 -0.069414744351 0
0.000473281998701 -0.0697457784185 0
-0.000428755514058 -0.0700484849404 0
-0.000625638776373 -0.0712450950373 0
5.90022036945e-05 -0.0683166297669 0
-9.08105996783e-05 -0.0689057462218 0
-0.000633001042007 -0.0712213153709 0
0.000625040126592 -0.0712276701744 0
-0.00039594780255 -0.0711979828607 0
0.000385956756277 -0.0712027806842 0
0.000217905831044 -0.0683643752221 0
0.000530149093934 -0.0709530671963 0
0.000500549498256 -0.0709429646928 0
0.000264513170759 -0.0688165550709 0
-0.000544025383164 -0.0702246154667 0
-0.000216512179737 -0.0691922821281 0
-0.000572199368589 -0.0709733405178 0
-0.000600485350106 -0.0713214204763 0
0.000592147401528 -0.0713264536335 0
5.22329191894e-05 -0.0717212248095 0
-0.000179793926266 -0.0701653865496 0
-0.000161601976217 -0.0704568303528 0
-0.000632141388051 -0.0708351220791 0
0.000233192395706 -0.0691952314806 0
-8.69273863143e-05 -0.0683282746049 0
-0.000589076789692 -0.0708513739317 0
0.000370156277271 -0.0701545580807 0
0.000169820544953 -0.0718483689891 0
0.000351125511049 -0.0696297364488 0
0.000151485644862 -0.0704606291726 0
-0.000180657263226 -0.0713255717707 0
-9.25751949993e-05 -0.0678007333416 0
0.00018201521526 -0.0701825030325 0
-9.31881147802e-05 -0.0686973505394 0
0.000253006446531 -0.0700043128917 0
-0.000376646120453 -0.069639781252 0
-0.000371719642142 -0.0701583667633 0
-0.000266688744327 -0.0700067937129 0
-1.87715888167e-06 -0.0675162706645 0
9.39928585827e-05 -0.0686842291789 0
2.15352026057e-05 -0.0668776982907 0
0.000687503220324 -0.0713757141288 0
-0.000694319514014 -0.0713708232581 0
0.000458170439452 -0.0691046511681 0
0.000515767053521 -0.0683442728343 0
-5.96404511578e-05 -0.0717877814005 0
-0.000525068738455 -0.0683404429283 0
-0.000467235808086 -0.0691195576518 0
0.000159474342905 -0.0703182974431 0
5.70044368169e-05 -0.070544505898 0
-0.000239987979001 -0.0684106443959 0
-0.00017262790254 -0.0703213245661 0
-6.95574147017e-05 -0.0705479514997 0
0.000636684476223 -0.0711972713663 0
0.000299078001711 -0.0714207367018 0
-6.86358305803e-05 -0.0694209348387 0
0.000268883169698 -0.0666640496977 0
-0.000197063761581 -0.0676799582875 0
0.000444222156902 -0.0670273739521 0
-0.000134502402065 -0.0681998211983 0
0.000619765954807 -0.0710972168436 0
0.000653842732283 -0.0713360539748 0
-0.000661322748125 -0.0713312491549 0
-0.000509245738783 -0.0709302915213 0
0.000676754647754 -0.0712908542153 0
-0.000683514490012 -0.0712867635127 0
7.89152012545e-05 -0.0708306601004 0
-0.00043153148666 -0.0695865895716 0
0.000107595132961 -0.0717876291341 0
-9.64892763231e-05 -0.0669215019496 0
0.000246035076842 -0.0698038814476 0
-0.000147612753476 -0.0709025485978 0
0.000136106367014 -0.0709065806052 0
-0.000646458651038 -0.0711660736398 0
0.000338750089387 -0.0693640512863 0
-3.02513865673e-05 -0.0694451505021 0
-0.000304239501176 -0.0692581271745 0
0.000512309455477 -0.0712922863004 0
-0.000156768812542 -0.0682806772915 0
-0.000357507074934 -0.0693541441564 0
0.000183676691332 -0.0677621928554 0
1.05617940521e-05 -0.0681084220705 0
-0.00066566142169 -0.0710984642148 0
-0.000258984555728 -0.0700947835073 0
1.1696018181e-05 -0.0674546292797 0
-8.85666845722e-05 -0.0701591103428 0
-0.000288504685833 -0.0697083903916 0
5.90354260733e-05 -0.0698901748886 0
-0.000202254976334 -0.070722261973 0
0.000190977008453 -0.070725906502 0
-7.24724320191e-05 -0.0698924513879 0
0.000116168270019 -0.0692316397782 0
1.33540391294e-05 -0.0673088948356 0
9.50359444378e-05 -0.0695685050922 0
0.000679568630815 -0.0712971040249 0
-0.000685319907675 -0.0712900672995 0
-0.000155051342575 -0.0718601089743 0
0.000282055878608 -0.0692844376998 0
0.000658525812613 -0.0710981887313 0
-1.22958297232e-05 -0.0673083442261 0
-0.000481209988036 -0.0671919899395 0
-0.00058736967976 -0.0712768080317 0
0.000578859709784 -0.0712816069723 0
-0.000534543642733 -0.0713434111657 0
0.000525556748028 -0.071348704155 0
-0.000144338602807 -0.0671976316769 0
-0.000614213604969 -0.0708580885264 0
5.90605221441e-05 -0.069068687641 0
0.000608635690971 -0.0713413771278 0
0.000418411165669 -0.069725009922 0
3.74386463307e-05 -0.0687462954078 0
0.000638907611972 -0.0711705336109 0
-0.000612111551882 -0.0713776562855 0
0.000603890819905 -0.0713831111013 0
0.000172209012703 -0.0707604785648 0
0.000486387446813 -0.0705523621455 0
-5.48500776213e-05 -0.0701516643696 0
-0.000557308907239 -0.0711771788425 0
0.000548542442943 -0.0711815515173 0
-0.000420541055759 -0.0708419302186 0
-8.36845598043e-05 -0.0683489164156 0
0.000403393822646 -0.0708505905087 0
0.00036344398969 -0.0692046427017 0
0.000152122372996 -0.0668958760762 0
-0.000594345975744 -0.0705620200161 0
4.39155038529e-05 -0.0701590173116 0
-0.000305103785555 -0.0708418258062 0
0.00029425313233 -0.0708454600469 0
0.000368932064852 -0.070787407626 0
-0.000455866941502 -0.0704889592449 0
-0.000161412186337 -0.071878111068 0