# vtk DataFile Version 2.0
Generated with Solid Solver
ASCII
DATASET UNSTRUCTURED_GRID
POINTS 999 float 
0.2 4.325 0.0
1.4 4.325 0.0
1.4 4.825 0.0
0.2 4.825 0.0
1.4 4.34523264049 0.0
1.4 4.36751203886 0.0
1.4 4.39204525371 0.0
1.4 4.4190602782 0.0
1.4 4.44880817466 0.0
1.4 4.48156541084 0.0
1.4 4.51763640748 0.0
1.4 4.5573564007 0.0
1.4 4.60109451608 0.0
1.4 4.64925723872 0.0
1.4 4.70229217343 0.0
1.4 4.76069218095 0.0
1.33333333333 4.825 0.0
1.26666666667 4.825 0.0
1.2 4.825 0.0
1.13333333333 4.825 0.0
1.06666666667 4.825 0.0
1.0 4.825 0.0
0.933333333334 4.825 0.0
0.866666666668 4.825 0.0
0.800000000001 4.825 0.0
0.733333333334 4.825 0.0
0.666666666668 4.825 0.0
0.600000000001 4.825 0.0
0.533333333334 4.825 0.0
0.466666666667 4.825 0.0
0.4 4.825 0.0
0.333333333334 4.825 0.0
0.266666666667 4.825 0.0
0.2 4.76069218095 0.0
0.2 4.70229217343 0.0
0.2 4.64925723872 0.0
0.2 4.60109451608 0.0
0.2 4.5573564007 0.0
0.2 4.51763640748 0.0
0.2 4.48156541084 0.0
0.2 4.44880817466 0.0
0.2 4.4190602782 0.0
0.2 4.39204525371 0.0
0.2 4.36751203886 0.0
0.2 4.34523264049 0.0
0.212131543907 4.30926329506 0.0
0.224675715302 4.29385348652 0.0
0.23762369102 4.27878141198 0.0
0.250966423879 4.26405760374 0.0
0.264694484585 4.24969246611 0.0
0.278798324214 4.23569599189 0.0
0.293267939266 4.22207810803 0.0
0.308093289028 4.20884826442 0.0
0.323263842145 4.19601585877 0.0
0.338769084145 4.18358978512 0.0
0.354597997314 4.17157887342 0.0
0.37073960121 4.15999145532 0.0
0.387182441982 4.14883575334 0.0
0.403915091795 4.13811952025 0.0
0.420925712897 4.12785033813 0.0
0.438202430937 4.11803537461 0.0
0.455733079095 4.10868154223 0.0
0.473505374364 4.09979539439 0.0
0.491506842655 4.09138316882 0.0
0.509724826085 4.0834507802 0.0
0.528146580414 4.07600377808 0.0
0.546759103951 4.06904741762 0.0
0.56554943677 4.06258654322 0.0
0.584504260001 4.05662573401 0.0
0.60361041518 4.0511691282 0.0
0.622854334779 4.04622060039 0.0
0.642222678753 4.04178358113 0.0
0.661701681839 4.03786122392 0.0
0.681277836375 4.03445624851 0.0
0.700937245817 4.03157107217 0.0
0.720666255912 4.02920769845 0.0
0.740450894784 4.02736780161 0.0
0.76027736978 4.02605266363 0.0
0.780131702711 4.02526321235 0.0
0.799999999998 4.025 0.0
0.819868297285 4.02526321235 0.0
0.839722630216 4.02605266363 0.0
0.859549105212 4.02736780161 0.0
0.879333744085 4.02920769845 0.0
0.89906275418 4.03157107217 0.0
0.918722163621 4.03445624851 0.0
0.938298318157 4.03786122392 0.0
0.957777321244 4.04178358113 0.0
0.977145665218 4.04622060039 0.0
0.996389584817 4.0511691282 0.0
1.01549574 4.05662573401 0.0
1.03445056323 4.06258654322 0.0
1.05324089605 4.06904741762 0.0
1.07185341958 4.07600377808 0.0
1.09027517391 4.0834507802 0.0
1.10849315734 4.09138316882 0.0
1.12649462563 4.09979539439 0.0
1.1442669209 4.10868154222 0.0
1.16179756906 4.1180353746 0.0
1.1790742871 4.12785033813 0.0
1.1960849082 4.13811952024 0.0
1.21281755802 4.14883575334 0.0
1.22926039879 4.15999145532 0.0
1.24540200269 4.17157887342 0.0
1.26123091585 4.18358978512 0.0
1.27673615785 4.19601585877 0.0
1.29190671097 4.20884826442 0.0
1.30673206073 4.22207810803 0.0
1.32120167579 4.23569599189 0.0
1.33530551541 4.24969246611 0.0
1.34903357612 4.26405760374 0.0
1.36237630898 4.27878141198 0.0
1.3753242847 4.29385348652 0.0
1.38786845609 4.30926329506 0.0
1.05632730172 4.46025283906 0.0
0.549964048968 4.4630053958 0.0
0.806135520676 4.31186690218 0.0
0.603895783049 4.26079310371 0.0
1.22984770884 4.38318704125 0.0
0.3703382852 4.38423552752 0.0
0.995322815839 4.25565031136 0.0
0.728315816804 4.1765935937 0.0
0.872128173905 4.17288724072 0.0
1.14059401893 4.27298468684 0.0
0.461553191009 4.27181671009 0.0
0.784706775856 4.56821390922 0.0
0.398287125272 4.57945970538 0.0
1.20625306554 4.58334743514 0.0
0.624100842742 4.1589824436 0.0
0.5257453845 4.18811776279 0.0
0.978502430793 4.15488737058 0.0
1.07419209812 4.18825154482 0.0
0.364313698077 4.28677035763 0.0
1.23509538257 4.28681716733 0.0
0.68124123937 4.39284548972 0.0
1.31679378691 4.35012066749 0.0
0.283206213094 4.35012066749 0.0
0.791498533126 4.11467141721 0.0
0.931481076052 4.3801344917 0.0
0.966719065571 4.62778042839 0.0
0.684451667517 4.11068036752 0.0
0.618335406951 4.62686910993 0.0
0.450982331762 4.19686171732 0.0
0.915674266355 4.10995633851 0.0
1.14900051594 4.19689012964 0.0
1.30193709687 4.4481448133 0.0
0.298574667609 4.44816296922 0.0
1.05734787542 4.34990107617 0.0
0.539273225177 4.35252599628 0.0
0.709896798149 4.27721026287 0.0
0.895708916005 4.26924194389 0.0
0.813273511364 4.43835766235 0.0
0.559289631452 4.13230879113 0.0
1.04001407307 4.13281539633 0.0
0.801161810585 4.23146244955 0.0
0.665113819616 4.52056650186 0.0
0.852577362173 4.09111846388 0.0
0.390256727869 4.2242806298 0.0
1.20974450479 4.22428104599 0.0
0.921542541183 4.52778058719 0.0
1.14030889032 4.36437344809 0.0
1.15600477272 4.46808538305 0.0
0.435243219029 4.4750581257 0.0
0.462045157798 4.36654654286 0.0
0.735806812738 4.08472269746 0.0
1.30082934537 4.29793772796 0.0
0.299170654625 4.29793772796 0.0
0.533651712118 4.26265983853 0.0
0.666130919144 4.21652131559 0.0
1.0676097303 4.26179469382 0.0
1.08054433577 4.58530946155 0.0
0.506773767255 4.56568295079 0.0
0.626745312844 4.10124420826 0.0
0.933845304214 4.2106954732 0.0
0.293717639664 4.55175000185 0.0
0.312505022079 4.66426411351 0.0
1.3058164124 4.55154930624 0.0
1.29054387065 4.66302765963 0.0
0.973467966326 4.09941619478 0.0
0.487935413164 4.15087084015 0.0
0.461549079751 4.68836834982 0.0
1.11203248746 4.15093503889 0.0
1.14453515393 4.70617370303 0.0
0.840217564202 4.68891146633 0.0
0.585347033288 4.20539048534 0.0
0.619177396637 4.34227576306 0.0
0.331644410315 4.24962190462 0.0
1.26835558968 4.24962190462 0.0
1.01536156978 4.19987473052 0.0
0.809331033562 4.07065709122 0.0
0.982321540791 4.33437358971 0.0
0.725600576914 4.66999651799 0.0
0.812291456186 4.16642942492 0.0
0.335887692543 4.33918235669 0.0
1.26344844681 4.34017131907 0.0
1.23449730504 4.49457441524 0.0
1.34334172095 4.40539551957 0.0
0.256658279045 4.40539551957 0.0
0.741646926828 4.34287908527 0.0
0.674799084703 4.16673768522 0.0
1.18647435526 4.30955189749 0.0
0.360563250283 4.49596479569 0.0
0.873716483853 4.33845499203 0.0
0.418704489949 4.31146264283 0.0
0.492670911224 4.22931614809 0.0
0.403480880356 4.19046776931 0.0
1.19651541215 4.1904686246 0.0
0.728649253738 4.46214546491 0.0
1.00883674467 4.40174664879 0.0
1.11035034557 4.23161841276 0.0
0.261968539765 4.3130079512 0.0
1.33803146023 4.3130079512 0.0
0.74649980488 4.1318354354 0.0
0.927597725248 4.1577597079 0.0
0.892956618256 4.07619338913 0.0
0.659794281787 4.07951387326 0.0
0.587663534405 4.09486537006 0.0
0.942353209926 4.07935300973 0.0
1.01493747319 4.09476013719 0.0
0.613130017774 4.41369803882 0.0
0.449373501074 4.15377191978 0.0
0.514840228377 4.12225850006 0.0
0.497057592 4.41333092106 0.0
1.15061382426 4.15379293084 0.0
1.08514419473 4.12228328152 0.0
0.745617635771 4.23098957592 0.0
0.87523452213 4.59853036549 0.0
0.855262884783 4.2258970831 0.0
1.01126200032 4.53280064162 0.0
1.09391916408 4.40632408872 0.0
1.04436265455 4.71482000827 0.0
0.314320181089 4.38773968607 0.0
1.28649331902 4.38743720145 0.0
0.771211579291 4.06316862024 0.0
0.432259099658 4.24006002157 0.0
0.698583889427 4.07144353526 0.0
1.16802128371 4.238862881 0.0
1.09587629216 4.3086676659 0.0
1.35920470355 4.35666960471 0.0
0.240795296449 4.35666960471 0.0
0.504003580654 4.30815758118 0.0
0.579942709371 4.5342075073 0.0
0.875915224914 4.12815792528 0.0
0.426503136644 4.40717733008 0.0
0.57541416445 4.30365301522 0.0
0.683877978289 4.33161848113 0.0
0.888061695889 4.44633509246 0.0
0.26012287522 4.49859249103 0.0
1.33987712478 4.49859249103 0.0
0.801393572636 4.37060096582 0.0
0.558460082533 4.72496728209 0.0
1.1741923373 4.41132830101 0.0
0.83220012886 4.12779415912 0.0
1.02815069622 4.30053276509 0.0
0.948308583502 4.2880204454 0.0
0.846588933095 4.50834596945 0.0
0.343666800815 4.43485820652 0.0
1.25632767671 4.43480360053 0.0
0.97849585731 4.47031535602 0.0
1.10170977548 4.51507265998 0.0
0.662193131828 4.26809398492 0.0
0.400503668388 4.26881657105 0.0
1.20117145985 4.26130427377 0.0
0.350957892513 4.21796558019 0.0
1.24904210749 4.21796558019 0.0
0.771964652188 4.18905379403 0.0
0.932165148285 4.72736281402 0.0
0.373672364094 4.73321357765 0.0
0.760245937722 4.28409350779 0.0
0.848718469252 4.05767763075 0.0
1.23385612561 4.7358294747 0.0
0.846421485813 4.28065918421 0.0
0.651597058631 4.13043284014 0.0
0.650489852552 4.72138045504 0.0
0.58457834847 4.16375088261 0.0
0.48701309933 4.18859927013 0.0
0.708495738406 4.58856947756 0.0
1.11203398596 4.18878062515 0.0
0.54865558244 4.10250047869 0.0
1.05126102377 4.10234629471 0.0
0.300013757486 4.26259646442 0.0
1.29998624251 4.26259646442 0.0
0.9465032388 4.12718070354 0.0
0.708587583337 4.14146095907 0.0
0.973348904468 4.19537871864 0.0
0.628721855632 4.19538356945 0.0
0.380175010018 4.34021880077 0.0
0.662092932411 4.45899041267 0.0
1.05133526787 4.22221992007 0.0
0.528087045766 4.64327882187 0.0
1.22233124543 4.33521693908 0.0
1.19001193434 4.36273586668 0.0
0.853024099244 4.39544003492 0.0
0.542800296246 4.22324366905 0.0
0.247706318737 4.45239119247 0.0
1.35229368126 4.45239119247 0.0
0.599153768578 4.12953797005 0.0
1.01616570494 4.16227683178 0.0
0.744705786938 4.40569544575 0.0
1.31929001115 4.73702550052 0.0
0.777615355331 4.15113602511 0.0
1.33132411895 4.60631378639 0.0
0.265621610877 4.60975488866 0.0
0.532023338888 4.15374454388 0.0
1.0697792195 4.15241429251 0.0
0.286371037106 4.73010312914 0.0
0.497725885905 4.50153668256 0.0
0.46053455822 4.31587947599 0.0
0.433799237968 4.54629400991 0.0
0.388624781906 4.65094200004 0.0
0.554823673752 4.40451940232 0.0
1.1421595646 4.31818301431 0.0
1.14760043966 4.61655103139 0.0
1.21258698805 4.65320200685 0.0
1.16279096046 4.53292621409 0.0
0.995762647814 4.12508772517 0.0
0.456229040627 4.61456685246 0.0
0.707289391156 4.21520271873 0.0
0.763036833302 4.74285445535 0.0
0.78386198569 4.49787013126 0.0
[...]
POINT_DATA 999
VECTORS Displacement float
-0.000581307893051 -0.0714115652418 0
0.000572871180479 -0.0714173715941 0
0.0 -0.072 0
0.0 -0.072 0
0.000605023183706 -0.071414372806 0
0.000636393224471 -0.0714098228901 0
0.000664372674629 -0.0714038710384 0
0.000687413001365 -0.0713992830974 0
0.000699567119841 -0.0713977718091 0
0.000704899727669 -0.0714010890456 0
0.000693252032317 -0.0714108469379 0
0.000662830867206 -0.0714289783175 0
0.000610635352605 -0.0714630068463 0
0.000527641128342 -0.0715179892871 0
0.00041035213764 -0.0716060884713 0
0.000245078130099 -0.0717469298172 0
0.0 -0.072 0
0.0 -0.072 0
0.0 -0.072 0
0.0 -0.072 0
0.0 -0.072 0
0.0 -0.072 0
0.0 -0.072 0
0.0 -0.072 0
0.0 -0.072 0
0.0 -0.072 0
0.0 -0.072 0
0.0 -0.072 0
0.0 -0.072 0
0.0 -0.072 0
0.0 -0.072 0
0.0 -0.072 0
0.0 -0.072 0
-0.00024453629965 -0.0717470046201 0
-0.000410610920633 -0.0716055501395 0
-0.000533426340454 -0.0715158901241 0
-0.000614647131689 -0.0714591951154 0
-0.000667030181805 -0.0714243495999 0
-0.000698441777286 -0.0714057604874 0
-0.000710778948121 -0.0713959227751 0
-0.000705962484461 -0.0713924572056 0
-0.000694279567318 -0.0713938187199 0
-0.000671683471688 -0.0713982681554 0
-0.000644124453085 -0.0714041150263 0
-0.000613135575445 -0.0714085975107 0
-0.00055515327638 -0.0713952893527 0
-0.000526363198608 -0.0713776081994 0
-0.000495050180996 -0.0713571279583 0
-0.000460688708887 -0.0713337829144 0
-0.00042358817052 -0.0713066131483 0
-0.000384677468186 -0.0712749435997 0
-0.000343694355819 -0.0712393640623 0
-0.000299240232046 -0.0711994005039 0
-0.000252273601531 -0.0711524417722 0
-0.000204598282183 -0.0711019658988 0
-0.000154386560399 -0.0710449519056 0
-0.000100870303476 -0.0709816963473 0
-4.64795656892e-05 -0.07091051363 0
1.04160418206e-05 -0.0708323012449 0
6.91333390797e-05 -0.0707460103096 0
0.000130378962385 -0.070650161727 0
0.000192380347716 -0.0705438013267 0
0.000258579919614 -0.0704264782722 0
0.000324754095249 -0.0702954920345 0
0.000395444593353 -0.0701484469013 0
0.000464845697123 -0.0699841460717 0
0.000542598557958 -0.0697978732516 0
0.000617405331539 -0.0695825355011 0
0.000702857042398 -0.0693279518022 0
0.00078500113132 -0.0690184343691 0
0.000872153388453 -0.0685688085438 0
0.000903827514907 -0.0681161478301 0
0.000884973043032 -0.0677005000715 0
0.000832384994209 -0.0673440199752 0
0.000740883032752 -0.0670264078602 0
0.000627297572831 -0.0667697970295 0
0.000484046985391 -0.0665625387235 0
0.000332626379131 -0.0664143319733 0
0.000170368429179 -0.0663269546208 0
-1.48524621723e-05 -0.0662951083277 0
-0.000187721882618 -0.0663251771148 0
-0.000353995755509 -0.0664171590696 0
-0.000506467307189 -0.0665633951501 0
-0.000642821990467 -0.0667680044708 0
-0.000757238282767 -0.0670275405053 0
-0.000852145835829 -0.0673446805226 0
-0.000910680493328 -0.0677132562623 0
-0.000918132304868 -0.0681227262832 0
-0.000886034242093 -0.0685693930932 0
-0.000800121307621 -0.0690201757787 0
-0.000718170634588 -0.0693314248119 0
-0.000632370511003 -0.0695862749298 0
-0.00055663922977 -0.0698006692492 0
-0.000478883193298 -0.0699867604962 0
-0.000409069771494 -0.0701514481831 0
-0.000338166995182 -0.0702986817969 0
-0.000271719952123 -0.070429883516 0
-0.000205202509952 -0.0705473988516 0
-0.00014289214652 -0.0706539052826 0
-8.13589467137e-05 -0.0707498848401 0
-2.23658026756e-05 -0.0708363009732 0
3.47875398914e-05 -0.0709146429044 0
8.94290485345e-05 -0.0709859723981 0
0.000143203901439 -0.0710493902278 0
0.000193689426592 -0.0711065660057 0
0.000241651827818 -0.0711571935957 0
0.000288890770904 -0.071204276872 0
0.00033359937148 -0.0712443425289 0
0.000374822324016 -0.0712800240534 0
0.000413974679827 -0.071311798894 0
0.000451308475338 -0.0713390725988 0
0.000485901483203 -0.0713625290457 0
0.00051744764396 -0.0713831287895 0
0.000546472780994 -0.0714009418316 0
0.000541866929075 -0.0707435992827 0
-0.000537324095893 -0.0707331379706 0
1.41312864544e-05 -0.0691694114377 0
-0.000463018657272 -0.0696292997476 0
0.0006476359944 -0.0711002824399 0
-0.000654801896086 -0.0710973556182 0
0.000447638973343 -0.0696007740182 0
-0.000169603327741 -0.068121847326 0
0.000150986857528 -0.0680924956413 0
0.00049733575662 -0.0706095178287 0
-0.000504664382897 -0.0705925496582 0
-3.27244311547e-05 -0.0708594322277 0
-0.000556124742367 -0.0714101260245 0
0.000549024528886 -0.0714270881486 0
-0.000229916949175 -0.0689795135579 0
-0.000284311431219 -0.070054708156 0
0.000197361126961 -0.0689989491163 0
0.000274159801614 -0.0700567576462 0
-0.000518438849646 -0.0710311300453 0
0.000509292155042 -0.071033002182 0
-0.000337318599078 -0.0699706848889 0
0.000615086457215 -0.0712807026433 0
-0.000622959479274 -0.0712760124003 0
-7.66966594532e-06 -0.0672363882468 0
0.000364124013591 -0.0699363376138 0
0.000264183780174 -0.0712572969685 0
6.89794805154e-06 -0.0679163806536 0
-0.000289118178636 -0.0712686539219 0
-0.000274216096623 -0.0705865471965 0
-2.48208665418e-05 -0.0679143752769 0
0.000263583152213 -0.0705900770153 0
0.000688498456542 -0.0713184820106 0
-0.000694429499178 -0.0713140810628 0
0.000563636328888 -0.0703493756119 0
-0.000574120896015 -0.0703721906845 0
-0.000280188809316 -0.0690794054007 0
0.000283734647039 -0.0690459283944 0
3.52670467796e-05 -0.0700937640408 0
-2.96284970378e-05 -0.0696755163691 0
2.11193425792e-05 -0.0696702199584 0
-2.91003489254e-06 -0.068457850876 0
-0.000305494291339 -0.070714702754 0
-8.61344621118e-05 -0.0671375502789 0
-0.000355046852505 -0.0709050466554 0
0.000344696525252 -0.0709091606806 0
0.000269381104875 -0.0707308348359 0
0.000615663180906 -0.0707663424272 0
0.000626524603249 -0.0710574775715 0
-0.000635648706737 -0.0710931296511 0
-0.000622695326283 -0.0707576923855 0
0.000115309046829 -0.0671495456646 0
0.000526700411535 -0.0712316553947 0
-0.000535542412092 -0.0712269112458 0
-0.000495154385737 -0.0701377165988 0
-0.000339233848044 -0.0688999069811 0
0.000483450228509 -0.0701475658768 0
0.000450219064153 -0.0712480611817 0
-0.000490994550017 -0.0712020628445 0
0.000108551591984 -0.0686973009498 0
0.000319420917197 -0.0688623044587 0
-0.000643390626345 -0.071445573946 0
-0.00044345410576 -0.0716470364441 0
0.000639647186543 -0.0714484600778 0
0.000446247739697 -0.0716462178121 0
-0.00014023344547 -0.0686939388174 0
-7.70176424934e-05 -0.0703267555567 0
-0.000325810746279 -0.071634292191 0
6.52716280731e-05 -0.0703299443128 0
0.000292011454836 -0.0716899609155 0
5.11510586655e-05 -0.0714542714839 0
-0.000374785625235 -0.0695639405319 0
-0.000478693110652 -0.0699327229689 0
-0.000422738409322 -0.0711276349574 0
0.000413030587124 -0.0711322259154 0
0.000347108836679 -0.0695533360399 0
-3.98843465521e-05 -0.0667536116357 0
0.000471571050006 -0.0699034916684 0
-0.000105482988819 -0.0713793882165 0
1.89754353332e-05 -0.0678069497377 0
-0.000609681501346 -0.0711495017459 0
0.000602962048507 -0.0711525443937 0
0.000655491002439 -0.0712814384235 0
0.000675132630487 -0.0713435654915 0
-0.000682096468093 -0.0713389000973 0
-0.000185068211342 -0.0694771641251 0
-0.000232587953705 -0.0684678722028 0
0.000559479117284 -0.0708666989752 0
-0.00066334602237 -0.071288812477 0
0.000224025969107 -0.0694826807926 0
-0.000571727663577 -0.0708444754416 0
-0.000408976435491 -0.0703522899002 0
-0.000233187175038 -0.0708373168564 0
0.000222215060817 -0.0708411607247 0
-0.000188949625058 -0.0702936129234 0
0.000503910719924 -0.0703386546941 0
0.000404006901802 -0.0703781045253 0
-0.000562781808001 -0.0713101983788 0
0.000554165169459 -0.0713152507126 0
-5.50040753503e-05 -0.0675702854973 0
0.000197513171555 -0.0684275941221 0
-0.000246503865575 -0.0673389804432 0
0.000282141847703 -0.0680223287959 0
0.000227979969867 -0.0692925422556 0
-0.000300657863842 -0.0680632780563 0
-0.000246411406729 -0.0693324512882 0
-0.00046971399853 -0.0703118942972 0
-7.48900780492e-05 -0.0705854307727 0
8.4279327305e-05 -0.0701078355523 0
-0.000612385481817 -0.0707418641641 0
6.31166596995e-05 -0.0705889872688 0
-9.74074314239e-05 -0.0701105866443 0
-0.000168756625392 -0.0685499821246 0
0.000140019707673 -0.0710402843353 0
0.000159206474364 -0.0685077877959 0
0.000420711790514 -0.0709207293843 0
0.000598687601085 -0.0706897446311 0
0.00022323355926 -0.0716552001874 0
-0.000663705479476 -0.07123488082 0
0.000656448124115 -0.0712404316908 0
0.000105012904187 -0.0667226741078 0
-0.000416288129806 -0.0707150515151 0
0.000292902086838 -0.0673938129142 0
0.000402115255437 -0.0707190780847 0
0.000554300432411 -0.0704299894352 0
0.000623856086372 -0.0713543721881 0
-0.000631721524879 -0.0713492249172 0
-0.000563018888639 -0.070427150464 0
-0.000435441651494 -0.0709444013404 0
4.99101409787e-05 -0.0676822518262 0
-0.00065214230132 -0.0709681687229 0
-0.000523686729042 -0.069999339398 0
-0.00034693092243 -0.0695760213476 0
0.000234051883093 -0.0702232505758 0
-0.000695127505779 -0.071395331609 0
0.000689368115388 -0.071399536032 0
1.10545033548e-06 -0.0696231173479 0
-0.000204367811486 -0.0716855178189 0
0.000645547992136 -0.0709825936185 0
1.72419081115e-05 -0.0674305580206 0
0.000515449752727 -0.0700110031412 0
0.000404235128106 -0.0694584862173 0
0.000111570540565 -0.0705396170061 0
-0.000682074462086 -0.0712241147864 0
0.000675972189365 -0.0712274910091 0
0.000417060398327 -0.0705616225486 0
0.000548914208301 -0.0710554146936 0
-0.000386945522736 -0.0692705677969 0
-0.000483689887626 -0.0708815342404 0
0.000455198231641 -0.0708878733263 0
-0.000328457670493 -0.0710590999455 0
0.000318174543651 -0.0710635467171 0
-7.88943944303e-05 -0.0680665456364 0
0.000121542440256 -0.0716448951797 0
-0.000253136188047 -0.0717925245321 0
-0.000132918740095 -0.0689768595441 0
-0.000230443339433 -0.0667683202618 0
0.000246156053239 -0.0718009733088 0
0.000143245920621 -0.0689635622479 0
-0.00010349691492 -0.0684814637252 0
-0.000143645659451 -0.0716293226638 0
-0.000228560623777 -0.0694483930325 0
-0.000260298627039 -0.0703502533258 0
-0.000176095531864 -0.0710040899192 0
0.000250624891537 -0.0703475946946 0
0.000211964281491 -0.0697793101577 0
-0.000225959525334 -0.0697809512426 0
-0.000455701275389 -0.0712209246449 0
0.000446257878149 -0.0712257523374 0
7.04548779517e-05 -0.0684409393896 0
-0.000119119696337 -0.0679382490559 0
0.000330799489525 -0.0691309306163 0
-0.000341736501258 -0.0691081247036 0
-0.000611040294234 -0.0710184486553 0
-0.000347446121186 -0.0703995113286 0
0.000399062752784 -0.0699309799355 0
-0.000363004003159 -0.0714324284543 0
0.000596628149544 -0.0710250899539 0
0.000624952165265 -0.070949085262 0
0.000153639645198 -0.0698409385696 0
-0.00041085238467 -0.0699780412549 0
-0.000704201903089 -0.0713695944846 0
0.000697938551176 -0.0713740757922 0
-6.2462111228e-05 -0.0691904901133 0
0.000210122989591 -0.0694565829171 0
-0.00016337799534 -0.069912433226 0
0.000263476733925 -0.0717959373071 0
-4.38262402314e-05 -0.0676566711287 0
0.000576013044476 -0.0715301887596 0
-0.000575211595048 -0.071532426113 0
-0.000128856591441 -0.0699662429576 0
0.000107587478532 -0.0699838519223 0
-0.000280272944937 -0.0717826177089 0
-0.000566311081934 -0.0710116167952 0
-0.000577573548738 -0.0706649408091 0
-0.000576360893043 -0.0712760228126 0
-0.000437678759228 -0.0715908352653 0
-0.000557705810787 -0.0704921530068 0
0.00057250977669 -0.0706847399001 0
0.000461296920189 -0.0714416313635 0
0.000431596515171 -0.071598216474 0
0.000584159575584 -0.0712366594522 0
2.7242791151e-05 -0.0691130964437 0
-0.000463906040642 -0.0714300144157 0
-0.000259510286297 -0.0685985422833 0
-3.19622281705e-05 -0.0716850908851 0
-4.13517315109e-05 -0.0704653448771 0
0.000358761351394 -0.0696234172784 0
-0.000111253005025 -0.070750509177 0
0.000241728888792 -0.0685591781175 0
9.9723200667e-05 -0.070754317085 0
0.000674334104193 -0.0713577042541 0
0.000269351098798 -0.066924250808 0
-0.000508103586209 -0.0711436607115 0
0.000498979432752 -0.0711481585049 0
-0.000246811095213 -0.0709722760251 0
0.000235994984986 -0.0709764923214 0
-0.000441439877499 -0.0706256890848 0
-0.000638272458336 -0.070949193477 0
3.586844093e-05 -0.0670720143509 0
-0.000193606938772 -0.0707291601506 0
-0.000435492334179 -0.0710138032659 0
0.000425830813712 -0.0710177782611 0
-0.000679596894458 -0.0713481801902 0
0.000660246554476 -0.071150965929 0
0.000388954553764 -0.0692386698745 0
-0.000505776037179 -0.0712880733217 0
0.000496694584656 -0.071293109155 0
0.000328587131616 -0.0715081883757 0
-0.000663404595853 -0.0711446724827 0
-0.000593707930308 -0.0713565956067 0
0.000585397754263 -0.0713618996355 0
0.000352759848066 -0.0687100968062 0
0.000101561889944 -0.0681876785105 0
0.000551465617735 -0.0715172545611 0
-0.000556549417728 -0.0715145996006 0
-0.000494492924276 -0.0703806009607 0
2.14900866121e-05 -0.0675740578551 0
4.41066116395e-06 -0.0687456973632 0
-2.90667409202e-05 -0.0670870797286 0
0.000594223862995 -0.070573247301 0
0.000486976723636 -0.0703914447441 0
-0.000453176929286 -0.0696476831621 0
-0.000431615046236 -0.0675077149634 0
-0.000349248719341 -0.068716608184 0
0.000594932327235 -0.0709216743457 0
-0.000599379725296 -0.0712251407711 0
0.0005913015284 -0.0712295315129 0
0.000282934880598 -0.070982427051 0
-0.000602385844225 -0.0705762630573 0
-0.000471619785259 -0.0698074212815 0
0.000240185494032 -0.0697541887807 0
-0.000312959470429 -0.070981165018 0
-3.06473696527e-05 -0.0712556832389 0
4.69778516861e-05 -0.0703999726187 0
-5.93157089418e-05 -0.0704032755917 0
-0.000402469305449 -0.0705509829682 0
0.000378764280954 -0.0705563345896 0
-0.000668505143059 -0.071439233612 0
0.000664043680438 -0.0714429364402 0
-0.000419050297649 -0.0693680068418 0
0.00046350853458 -0.0698504467012 0
-0.000277308847308 -0.0697924377193 0
0.000362066115771 -0.0712188579557 0
-0.000327844891823 -0.0669732164162 0
0.000357417706873 -0.0702780701413 0
0.000655886776994 -0.0713699993851 0
-0.000663300169281 -0.071364841711 0
-0.000297581207965 -0.0707400182036 0
-6.83978701849e-05 -0.0674644195763 0
0.000286927517355 -0.0707436664925 0
-0.000324235390986 -0.0689353423367 0
0.000152264089413 -0.0713547414415 0
0.00016924255361 -0.0718109276006 0
0.000558996873841 -0.0705008293034 0
-0.000534277307752 -0.0702199036893 0
0.000657386038078 -0.0712938021804 0
-0.000664578774952 -0.0712893943711 0
0.000616658156352 -0.0713980339475 0
-0.000623482674319 -0.0713902069342 0
0.000108975113397 -0.0680415105752 0
0.000514086085294 -0.070769297739 0
0.000486179571733 -0.0676107343376 0
2.39245914082e-05 -0.0665349688051 0
7.4953638068e-05 -0.0677956143076 0
-0.000633536147451 -0.070932193533 0
-0.000518107417116 -0.0707913044661 0
-0.000351761188413 -0.0711377298849 0
0.000341661123835 -0.0711423905516 0
0.000102249049044 -0.0694881379573 0
0.000306239574728 -0.0688723457403 0
-0.000143481342122 -0.0666219568087 0
0.000441209776091 -0.0716478796516 0
-0.000572820098037 -0.0711076049616 0
0.000561991350626 -0.0711122753309 0
0.000507935884202 -0.070118762723 0
-0.000480026829505 -0.0716166333906 0
-0.000159964988997 -0.0718222128874 0
0.000627735852266 -0.0708367201527 0
-0.000396645727815 -0.0712516058222 0
-0.000274150853263 -0.06880497318 0
0.000453463421869 -0.0700590129545 0
0.000531424543305 -0.0702136948114 0
0.000389087765488 -0.0694066469995 0
0.000473060930642 -0.0697394041323 0
-0.000428818976091 -0.0700434418337 0
-0.000626870827747 -0.0712427512906 0
6.26216894083e-05 -0.068308201222 0
-8.72917461972e-05 -0.0688940947173 0
-0.000634058439446 -0.0712188241904 0
0.000626214696936 -0.0712251952412 0
-0.000396005456525 -0.0711953700334 0
0.000386171110732 -0.07120017748 0
0.000216252594134 -0.0683579079525 0
0.000530909015179 -0.0709494689079 0
0.000501431350235 -0.0709399508412 0
0.000262321209242 -0.0688080714168 0
-0.000544197308439 -0.070218684937 0
-0.000216041645918 -0.0691866621988 0
-0.0005729536625 -0.070969823631 0
-0.000601408897688 -0.071319356279 0
0.00059319506906 -0.0713243806558 0
5.23435980143e-05 -0.0717204957419 0
-0.000178905677377 -0.0701575737184 0
-0.000160704330421 -0.07045061726 0
-0.000633093442652 -0.070831354087 0
0.000232866685019 -0.0691895772687 0
-9.034954314e-05 -0.0683198103771 0
-0.000589975657244 -0.0708478879685 0
0.00036999726908 -0.070147485192 0
0.000170213188195 -0.07184792395 0
0.00035439780987 -0.0696160192737 0
0.000150773432312 -0.070454527123 0
-0.000180937474308 -0.0713238097094 0
-9.16710775114e-05 -0.0677957135718 0
0.000181358694096 -0.0701749516095 0
-9.27892353548e-05 -0.0686918144015 0
0.000255875885412 -0.069994764538 0
-0.00037972435965 -0.0696264794156 0
-0.000371375095041 -0.0701511491376 0
-0.000269294683265 -0.0699974561319 0
-1.82994538683e-06 -0.0675117726594 0
9.37653468407e-05 -0.0686786931674 0
2.16763271195e-05 -0.0668738921604 0
0.000688971210965 -0.0713738580848 0
-0.000695688832912 -0.0713689836278 0
0.000462702411697 -0.0690808426444 0
0.000518178945544 -0.0683369408436 0
-5.97402710678e-05 -0.0717872174892 0
-0.000527331850164 -0.0683332224767 0
-0.000471366816227 -0.069096632878 0
0.000161927733059 -0.070311125734 0
5.89449338885e-05 -0.0705387156487 0
-0.00023821399494 -0.0684041072089 0
-0.000174840847407 -0.0703142888922 0
-7.12801761433e-05 -0.070542254566 0
0.000638010927915 -0.0711947702974 0
0.000299676581198 -0.0714191389145 0
-6.84816741823e-05 -0.0694157363704 0
0.00026882451328 -0.0666604484645 0
-0.000198217850882 -0.0676750342036 0
0.000444031507399 -0.0670236766995 0
-0.000131887010863 -0.0681928644504 0
0.000620895936405 -0.0710942389717 0
0.00065514972527 -0.0713340257163 0
-0.000662519264673 -0.071329230315 0
-0.000510035135175 -0.0709272088134 0
0.000678165506792 -0.0712886382528 0
-0.000684823664318 -0.0712845458863 0
7.90748645196e-05 -0.070827803388 0
-0.000430608747808 -0.0695787165722 0
0.000107817538894 -0.0717870516343 0
-9.6544152544e-05 -0.0669176704489 0
0.000246088828792 -0.0697989359743 0
-0.000146612191895 -0.0708985962157 0
0.00013529370225 -0.0709026746335 0
-0.00064756649908 -0.0711633643388 0
0.000338336810872 -0.06935810646 0
-3.2317779631e-05 -0.0694322057309 0
-0.000302278699764 -0.0692484678451 0
0.000513371599318 -0.0712901879078 0
-0.000155808032065 -0.0682750901064 0
-0.000356866700669 -0.0693480447498 0
0.000185284191194 -0.0677569275534 0
1.05748811461e-05 -0.0681032710804 0
-0.000666857674381 -0.0710955427478 0
-0.00025902417811 -0.0700902886946 0
1.10558678248e-05 -0.0674501034696 0
-8.85424726926e-05 -0.0701549062824 0
-0.000288314616127 -0.069703178908 0
6.08498131296e-05 -0.0698799390026 0
-0.000201513778371 -0.0707174415018 0
0.000190416495616 -0.0707211559607 0
-7.40428753632e-05 -0.0698824291553 0
0.000116078097774 -0.0692262535579 0
1.40392405457e-05 -0.0673045776968 0
9.71755473503e-05 -0.0695554948711 0
0.000681039657001 -0.0712949104117 0
-0.000686696884771 -0.0712878538142 0
-0.00015539347454 -0.0718596983895 0
0.000280319423347 -0.0692748155195 0
0.000659823921198 -0.071095282044 0
-1.18297311951e-05 -0.0673040571063 0
-0.000480908146256 -0.06718822452 0
-0.000588234015128 -0.071274547922 0
0.000579850701264 -0.0712793455008 0
-0.000535183271153 -0.0713414400164 0
0.000526332403653 -0.0713467201369 0
-0.000144680807164 -0.0671935270073 0
-0.000615084587568 -0.0708542118722 0
6.28156264325e-05 -0.0690541232706 0
0.000609968309688 -0.071339352795 0
0.000417830854165 -0.0697172246368 0
3.37619809997e-05 -0.0687351397454 0
0.000640129690294 -0.0711678421842 0
-0.000613088831684 -0.0713758451694 0
0.000604989645564 -0.071381280197 0
0.000172490486036 -0.0707574295731 0
0.000487037100739 -0.0705483671394 0
-5.35007764317e-05 -0.0701435281424 0
-0.000558039591351 -0.0711744905803 0
0.000549405986998 -0.071178875818 0
-0.000420686606592 -0.070837759682 0
-8.3195614607e-05 -0.068343507772 0
0.000403669451921 -0.0708464922951 0
0.000362679708529 -0.0691981188988 0
0.000152281402062 -0.06689207939 0
-0.000595012845269 -0.0705575477363 0
4.2768051623e-05 -0.0701510765093 0
-0.000304790430254 -0.0708376085054 0
0.00029410750818 -0.0708412965845 0
0.000369507613184 -0.0707842184051 0
-0.00045602051277 -0.0704833438835 0
-0.000161797055918 -0.0718777604596 0
-0.000452509137622 -0.071269190248 0