# vtk DataFile Version 2.0
Generated with Solid Solver
ASCII
DATASET UNSTRUCTURED_GRID
POINTS 999 float 
0.2 4.325 0.0
1.4 4.325 0.0
1.4 4.825 0.0
0.2 4.825 0.0
1.4 4.34523264049 0.0
1.4 4.36751203886 0.0
1.4 4.39204525371 0.0
1.4 4.4190602782 0.0
1.4 4.44880817466 0.0
1.4 4.48156541084 0.0
1.4 4.51763640748 0.0
1.4 4.5573564007 0.0
1.4 4.60109451608 0.0
1.4 4.64925723872 0.0
1.4 4.70229217343 0.0
1.4 4.76069218095 0.0
1.33333333333 4.825 0.0
1.26666666667 4.825 0.0
1.2 4.825 0.0
1.13333333333 4.825 0.0
1.06666666667 4.825 0.0
1.0 4.825 0.0
0.933333333334 4.825 0.0
0.866666666668 4.825 0.0
0.800000000001 4.825 0.0
0.733333333334 4.825 0.0
0.666666666668 4.825 0.0
0.600000000001 4.825 0.0
0.533333333334 4.825 0.0
0.466666666667 4.825 0.0
0.4 4.825 0.0
0.333333333334 4.825 0.0
0.266666666667 4.825 0.0
0.2 4.76069218095 0.0
0.2 4.70229217343 0.0
0.2 4.64925723872 0.0
0.2 4.60109451608 0.0
0.2 4.5573564007 0.0
0.2 4.51763640748 0.0
0.2 4.48156541084 0.0
0.2 4.44880817466 0.0
0.2 4.4190602782 0.0
0.2 4.39204525371 0.0
0.2 4.36751203886 0.0
0.2 4.34523264049 0.0
0.212131543907 4.30926329506 0.0
0.224675715302 4.29385348652 0.0
0.23762369102 4.27878141198 0.0
0.250966423879 4.26405760374 0.0
0.264694484585 4.24969246611 0.0
0.278798324214 4.23569599189 0.0
0.293267939266 4.22207810803 0.0
0.308093289028 4.20884826442 0.0
0.323263842145 4.19601585877 0.0
0.338769084145 4.18358978512 0.0
0.354597997314 4.17157887342 0.0
0.37073960121 4.15999145532 0.0
0.387182441982 4.14883575334 0.0
0.403915091795 4.13811952025 0.0
0.420925712897 4.12785033813 0.0
0.438202430937 4.11803537461 0.0
0.455733079095 4.10868154223 0.0
0.473505374364 4.09979539439 0.0
0.491506842655 4.09138316882 0.0
0.509724826085 4.0834507802 0.0
0.528146580414 4.07600377808 0.0
0.546759103951 4.06904741762 0.0
0.56554943677 4.06258654322 0.0
0.584504260001 4.05662573401 0.0
0.60361041518 4.0511691282 0.0
0.622854334779 4.04622060039 0.0
0.642222678753 4.04178358113 0.0
0.661701681839 4.03786122392 0.0
0.681277836375 4.03445624851 0.0
0.700937245817 4.03157107217 0.0
0.720666255912 4.02920769845 0.0
0.740450894784 4.02736780161 0.0
0.76027736978 4.02605266363 0.0
0.780131702711 4.02526321235 0.0
0.799999999998 4.025 0.0
0.819868297285 4.02526321235 0.0
0.839722630216 4.02605266363 0.0
0.859549105212 4.02736780161 0.0
0.879333744085 4.02920769845 0.0
0.89906275418 4.03157107217 0.0
0.918722163621 4.03445624851 0.0
0.938298318157 4.03786122392 0.0
0.957777321244 4.04178358113 0.0
0.977145665218 4.04622060039 0.0
0.996389584817 4.0511691282 0.0
1.01549574 4.05662573401 0.0
1.03445056323 4.06258654322 0.0
1.05324089605 4.06904741762 0.0
1.07185341958 4.07600377808 0.0
1.09027517391 4.0834507802 0.0
1.10849315734 4.09138316882 0.0
1.12649462563 4.09979539439 0.0
1.1442669209 4.10868154222 0.0
1.16179756906 4.1180353746 0.0
1.1790742871 4.12785033813 0.0
1.1960849082 4.13811952024 0.0
1.21281755802 4.14883575334 0.0
1.22926039879 4.15999145532 0.0
1.24540200269 4.17157887342 0.0
1.26123091585 4.18358978512 0.0
1.27673615785 4.19601585877 0.0
1.29190671097 4.20884826442 0.0
1.30673206073 4.22207810803 0.0
1.32120167579 4.23569599189 0.0
1.33530551541 4.24969246611 0.0
1.34903357612 4.26405760374 0.0
1.36237630898 4.27878141198 0.0
1.3753242847 4.29385348652 0.0
1.38786845609 4.30926329506 0.0
1.05632730172 4.46025283906 0.0
0.549964048968 4.4630053958 0.0
0.806135520676 4.31186690218 0.0
0.603895783049 4.26079310371 0.0
1.22984770884 4.38318704125 0.0
0.3703382852 4.38423552752 0.0
0.995322815839 4.25565031136 0.0
0.728315816804 4.1765935937 0.0
0.872128173905 4.17288724072 0.0
1.14059401893 4.27298468684 0.0
0.461553191009 4.27181671009 0.0
0.784706775856 4.56821390922 0.0
0.398287125272 4.57945970538 0.0
1.20625306554 4.58334743514 0.0
0.624100842742 4.1589824436 0.0
0.5257453845 4.18811776279 0.0
0.978502430793 4.15488737058 0.0
1.07419209812 4.18825154482 0.0
0.364313698077 4.28677035763 0.0
1.23509538257 4.28681716733 0.0
0.68124123937 4.39284548972 0.0
1.31679378691 4.35012066749 0.0
0.283206213094 4.35012066749 0.0
0.791498533126 4.11467141721 0.0
0.931481076052 4.3801344917 0.0
0.966719065571 4.62778042839 0.0
0.684451667517 4.11068036752 0.0
0.618335406951 4.62686910993 0.0
0.450982331762 4.19686171732 0.0
0.915674266355 4.10995633851 0.0
1.14900051594 4.19689012964 0.0
1.30193709687 4.4481448133 0.0
0.298574667609 4.44816296922 0.0
1.05734787542 4.34990107617 0.0
0.539273225177 4.35252599628 0.0
0.709896798149 4.27721026287 0.0
0.895708916005 4.26924194389 0.0
0.813273511364 4.43835766235 0.0
0.559289631452 4.13230879113 0.0
1.04001407307 4.13281539633 0.0
0.801161810585 4.23146244955 0.0
0.665113819616 4.52056650186 0.0
0.852577362173 4.09111846388 0.0
0.390256727869 4.2242806298 0.0
1.20974450479 4.22428104599 0.0
0.921542541183 4.52778058719 0.0
1.14030889032 4.36437344809 0.0
1.15600477272 4.46808538305 0.0
0.435243219029 4.4750581257 0.0
0.462045157798 4.36654654286 0.0
0.735806812738 4.08472269746 0.0
1.30082934537 4.29793772796 0.0
0.299170654625 4.29793772796 0.0
0.533651712118 4.26265983853 0.0
0.666130919144 4.21652131559 0.0
1.0676097303 4.26179469382 0.0
1.08054433577 4.58530946155 0.0
0.506773767255 4.56568295079 0.0
0.626745312844 4.10124420826 0.0
0.933845304214 4.2106954732 0.0
0.293717639664 4.55175000185 0.0
0.312505022079 4.66426411351 0.0
1.3058164124 4.55154930624 0.0
1.29054387065 4.66302765963 0.0
0.973467966326 4.09941619478 0.0
0.487935413164 4.15087084015 0.0
0.461549079751 4.68836834982 0.0
1.11203248746 4.15093503889 0.0
1.14453515393 4.70617370303 0.0
0.840217564202 4.68891146633 0.0
0.585347033288 4.20539048534 0.0
0.619177396637 4.34227576306 0.0
0.331644410315 4.24962190462 0.0
1.26835558968 4.24962190462 0.0
1.01536156978 4.19987473052 0.0
0.809331033562 4.07065709122 0.0
0.982321540791 4.33437358971 0.0
0.725600576914 4.66999651799 0.0
0.812291456186 4.16642942492 0.0
0.335887692543 4.33918235669 0.0
1.26344844681 4.34017131907 0.0
1.23449730504 4.49457441524 0.0
1.34334172095 4.40539551957 0.0
0.256658279045 4.40539551957 0.0
0.741646926828 4.34287908527 0.0
0.674799084703 4.16673768522 0.0
1.18647435526 4.30955189749 0.0
0.360563250283 4.49596479569 0.0
0.873716483853 4.33845499203 0.0
0.418704489949 4.31146264283 0.0
0.492670911224 4.22931614809 0.0
0.403480880356 4.19046776931 0.0
1.19651541215 4.1904686246 0.0
0.728649253738 4.46214546491 0.0
1.00883674467 4.40174664879 0.0
1.11035034557 4.23161841276 0.0
0.261968539765 4.3130079512 0.0
1.33803146023 4.3130079512 0.0
0.74649980488 4.1318354354 0.0
0.927597725248 4.1577597079 0.0
0.892956618256 4.07619338913 0.0
0.659794281787 4.07951387326 0.0
0.587663534405 4.09486537006 0.0
0.942353209926 4.07935300973 0.0
1.01493747319 4.09476013719 0.0
0.613130017774 4.41369803882 0.0
0.449373501074 4.15377191978 0.0
0.514840228377 4.12225850006 0.0
0.497057592 4.41333092106 0.0
1.15061382426 4.15379293084 0.0
1.08514419473 4.12228328152 0.0
0.745617635771 4.23098957592 0.0
0.87523452213 4.59853036549 0.0
0.855262884783 4.2258970831 0.0
1.01126200032 4.53280064162 0.0
1.09391916408 4.40632408872 0.0
1.04436265455 4.71482000827 0.0
0.314320181089 4.38773968607 0.0
1.28649331902 4.38743720145 0.0
0.771211579291 4.06316862024 0.0
0.432259099658 4.24006002157 0.0
0.698583889427 4.07144353526 0.0
1.16802128371 4.238862881 0.0
1.09587629216 4.3086676659 0.0
1.35920470355 4.35666960471 0.0
0.240795296449 4.35666960471 0.0
0.504003580654 4.30815758118 0.0
0.579942709371 4.5342075073 0.0
0.875915224914 4.12815792528 0.0
0.426503136644 4.40717733008 0.0
0.57541416445 4.30365301522 0.0
0.683877978289 4.33161848113 0.0
0.888061695889 4.44633509246 0.0
0.26012287522 4.49859249103 0.0
1.33987712478 4.49859249103 0.0
0.801393572636 4.37060096582 0.0
0.558460082533 4.72496728209 0.0
1.1741923373 4.41132830101 0.0
0.83220012886 4.12779415912 0.0
1.02815069622 4.30053276509 0.0
0.948308583502 4.2880204454 0.0
0.846588933095 4.50834596945 0.0
0.343666800815 4.43485820652 0.0
1.25632767671 4.43480360053 0.0
0.97849585731 4.47031535602 0.0
1.10170977548 4.51507265998 0.0
0.662193131828 4.26809398492 0.0
0.400503668388 4.26881657105 0.0
1.20117145985 4.26130427377 0.0
0.350957892513 4.21796558019 0.0
1.24904210749 4.21796558019 0.0
0.771964652188 4.18905379403 0.0
0.932165148285 4.72736281402 0.0
0.373672364094 4.73321357765 0.0
0.760245937722 4.28409350779 0.0
0.848718469252 4.05767763075 0.0
1.23385612561 4.7358294747 0.0
0.846421485813 4.28065918421 0.0
0.651597058631 4.13043284014 0.0
0.650489852552 4.72138045504 0.0
0.58457834847 4.16375088261 0.0
0.48701309933 4.18859927013 0.0
0.708495738406 4.58856947756 0.0
1.11203398596 4.18878062515 0.0
0.54865558244 4.10250047869 0.0
1.05126102377 4.10234629471 0.0
0.300013757486 4.26259646442 0.0
1.29998624251 4.26259646442 0.0
0.9465032388 4.12718070354 0.0
0.708587583337 4.14146095907 0.0
0.973348904468 4.19537871864 0.0
0.628721855632 4.19538356945 0.0
0.380175010018 4.34021880077 0.0
0.662092932411 4.45899041267 0.0
1.05133526787 4.22221992007 0.0
0.528087045766 4.64327882187 0.0
1.22233124543 4.33521693908 0.0
1.19001193434 4.36273586668 0.0
0.853024099244 4.39544003492 0.0
0.542800296246 4.22324366905 0.0
0.247706318737 4.45239119247 0.0
1.35229368126 4.45239119247 0.0
0.599153768578 4.12953797005 0.0
1.01616570494 4.16227683178 0.0
0.744705786938 4.40569544575 0.0
1.31929001115 4.73702550052 0.0
0.777615355331 4.15113602511 0.0
1.33132411895 4.60631378639 0.0
0.265621610877 4.60975488866 0.0
0.532023338888 4.15374454388 0.0
1.0697792195 4.15241429251 0.0
0.286371037106 4.73010312914 0.0
0.497725885905 4.50153668256 0.0
0.46053455822 4.31587947599 0.0
0.433799237968 4.54629400991 0.0
0.388624781906 4.65094200004 0.0
0.554823673752 4.40451940232 0.0
1.1421595646 4.31818301431 0.0
1.14760043966 4.61655103139 0.0
1.21258698805 4.65320200685 0.0
1.16279096046 4.53292621409 0.0
0.995762647814 4.12508772517 0.0
0.456229040627 4.61456685246 0.0
0.707289391156 4.21520271873 0.0
0.763036833302 4.74285445535 0.0
0.78386198569 4.49787013126 0.0
[...]
POINT_DATA 999
VECTORS Displacement float
-0.00118119703356 -0.106716396834 0
0.00116910950256 -0.10672448056 0
0.0 -0.108 0
0.0 -0.108 0
0.00124226983485 -0.106718101168 0
0.00131351682675 -0.106708651492 0
0.00137727249892 -0.106696521516 0
0.00143036867039 -0.106687946668 0
0.00145989398353 -0.106686600657 0
0.00147497152227 -0.106696285901 0
0.00145378754091 -0.106720414704 0
0.00139276784851 -0.106763020299 0
0.00128567156005 -0.106840040041 0
0.00111325097513 -0.10696190132 0
0.00086792738947 -0.107154247402 0
0.000520082921858 -0.107457947426 0
0.0 -0.108 0
0.0 -0.108 0
0.0 -0.108 0
0.0 -0.108 0
0.0 -0.108 0
0.0 -0.108 0
0.0 -0.108 0
0.0 -0.108 0
0.0 -0.108 0
0.0 -0.108 0
0.0 -0.108 0
0.0 -0.108 0
0.0 -0.108 0
0.0 -0.108 0
0.0 -0.108 0
0.0 -0.108 0
0.0 -0.108 0
-0.000518040506507 -0.107459225287 0
-0.000866850990546 -0.10715477105 0
-0.00112344585104 -0.106959812954 0
-0.00129152220865 -0.106834840675 0
-0.00139849114006 -0.106756413675 0
-0.00146114354045 -0.106713095143 0
-0.00148338045441 -0.106689011211 0
-0.00146902558985 -0.10667918441 0
-0.00144015902004 -0.106680347518 0
-0.00138769902892 -0.106688732271 0
-0.00132455674616 -0.106700710215 0
-0.00125387369716 -0.106710062109 0
-0.00112144169654 -0.106678694633 0
-0.00105575733765 -0.106637504599 0
-0.000984489673759 -0.106589805488 0
-0.000906406705606 -0.106535514409 0
-0.000822147538899 -0.106472418747 0
-0.000733867746676 -0.106398988039 0
-0.000640854602831 -0.106316499639 0
-0.000539831824129 -0.10622387798 0
-0.000432846493839 -0.106114815195 0
-0.000324205814585 -0.105997487085 0
-0.000209505847181 -0.105864621231 0
-8.65585219183e-05 -0.105716651517 0
3.87223659403e-05 -0.105549182898 0
0.000170542479994 -0.105364102642 0
0.000307387943488 -0.105158433534 0
0.000452118896986 -0.104927275237 0
0.000599510716036 -0.104667205132 0
0.000761175184264 -0.104373788466 0
0.000922572434288 -0.104038513839 0
0.00110420969076 -0.103642164986 0
0.00128412834264 -0.103162394587 0
0.00148481590682 -0.102529202778 0
0.00162840663733 -0.101846101634 0
0.00170360727856 -0.101191186122 0
0.00172323930151 -0.100580363402 0
0.00168264140629 -0.100011763049 0
0.00160490256288 -0.0994986480396 0
0.00148470101585 -0.0990365542469 0
0.00134080600336 -0.0986400643543 0
0.00115997695983 -0.098291119992 0
0.000960547437036 -0.0980092630209 0
0.00073272104917 -0.0977824681759 0
0.000497962711982 -0.0976182369901 0
0.000251561844718 -0.0975186234246 0
-2.27108908274e-05 -0.0974828398702 0
-0.000279699236548 -0.0975225199207 0
-0.00052831419897 -0.0976231086962 0
-0.000763507678763 -0.0977828927294 0
-0.000983311888307 -0.0980083228663 0
-0.00118353956722 -0.0982934289964 0
-0.00136536217715 -0.0986417618188 0
-0.00151831889185 -0.0990495798449 0
-0.00162690974952 -0.0995035614295 0
-0.00170294257927 -0.100014363566 0
-0.00174324252501 -0.100581591978 0
-0.00172513170806 -0.101191013315 0
-0.0016511476549 -0.10184656728 0
-0.0015058672005 -0.102533976075 0
-0.00130444688465 -0.103165163625 0
-0.00112391700165 -0.103645489931 0
-0.000941856821035 -0.104042222835 0
-0.000780063010132 -0.104377755761 0
-0.000618075513613 -0.104671352605 0
-0.000470382868463 -0.104931643801 0
-0.000325307460149 -0.105163098007 0
-0.000188068640837 -0.105369070859 0
-5.58448360621e-05 -0.105554437133 0
6.98340323663e-05 -0.105722206408 0
0.000193202252603 -0.10587049048 0
0.000308348424186 -0.106003653936 0
0.000417454846662 -0.106121249512 0
0.000524873564282 -0.106230524731 0
0.000626291029802 -0.106323307974 0
0.00071966762388 -0.106405957886 0
0.000808313426548 -0.106479552914 0
0.000892919351777 -0.106542806222 0
0.000971343038032 -0.106597267783 0
0.00104295458417 -0.106645152489 0
0.00110898977087 -0.106686545955 0
0.00108740260157 -0.105285424665 0
-0.00107393771316 -0.105268238968 0
2.46364663828e-05 -0.10221706074 0
-0.000797880616269 -0.1028599619 0
0.00133150732436 -0.10600814758 0
-0.0013419502713 -0.10600506172 0
0.000767783966377 -0.10279324373 0
-0.000156378351733 -0.100244581758 0
0.00012465578649 -0.100190710527 0
0.000979599808173 -0.104879201954 0
-0.000987871856776 -0.104844036989 0
-6.40257861337e-05 -0.105599906586 0
-0.00115366981494 -0.106714295056 0
0.00114184785869 -0.106749359792 0
-0.000198098356886 -0.101360313417 0
-0.000476605907813 -0.103544721366 0
0.000139191952252 -0.101367249719 0
0.000462530249294 -0.103544470556 0
-0.00103572835352 -0.105840884813 0
0.00102250991965 -0.105841139181 0
-0.000628011105814 -0.103738757562 0
0.00126360047159 -0.106411962087 0
-0.00127483137873 -0.106405537335 0
8.74267232129e-06 -0.0989077117726 0
0.000678563705904 -0.103655229502 0
0.000536621889269 -0.106417758529 0
0.000267374768646 -0.0996672830672 0
-0.000586529294478 -0.106440344102 0
-0.000485437807364 -0.104788457497 0
-0.000295776813854 -0.0996596264859 0
0.000470520531291 -0.104792647855 0
0.0014324561349 -0.106502026658 0
-0.00144072183662 -0.106495552562 0
0.00109736529234 -0.104396801398 0
-0.0011173226881 -0.104447696439 0
-0.000445253634748 -0.101979223062 0
0.000445569381542 -0.101902947171 0
6.74479786545e-05 -0.104029422242 0
0.000106636304431 -0.102513269554 0
-0.000117069648787 -0.102502802864 0
-4.04942106817e-06 -0.100913908395 0
-0.000604098187434 -0.105279508354 0
-0.000245835932417 -0.0986903704446 0
-0.000668591046972 -0.105541369404 0
0.000653606610233 -0.105546831019 0
0.000534958597664 -0.105316370067 0
0.0012421801241 -0.105273426133 0
0.0012853088552 -0.105936091919 0
-0.00130367946522 -0.106016311559 0
-0.00125186284046 -0.105258693815 0
0.000314247698083 -0.0986732302194 0
0.00106378715038 -0.106296864489 0
-0.00107646645163 -0.106290397548 0
-0.000924581928451 -0.103854669934 0
-0.000470678428569 -0.10149749236 0
0.000906799707606 -0.103869915078 0
0.000922885911105 -0.10637699232 0
-0.00100422675826 -0.106275747027 0
0.000516356898235 -0.100573118363 0
0.000429586579544 -0.101415956074 0
-0.00134374562359 -0.106791173672 0
-0.000929347175598 -0.107233058117 0
0.00133880830097 -0.106794921928 0
0.000936994598946 -0.107229929205 0
-0.000566395103388 -0.100557778802 0
-4.41757280306e-05 -0.104136452828 0
-0.000674826445503 -0.107208467415 0
2.7173918037e-05 -0.104139748246 0
0.000606539032738 -0.107328216243 0
0.0001039682386 -0.10684435328 0
-0.000591656586732 -0.102579974706 0
-0.000885087904773 -0.103584941944 0
-0.000821199221054 -0.106059238412 0
0.000807226400412 -0.106065432706 0
0.000539637684778 -0.102539798073 0
-7.64627444471e-05 -0.0981777842738 0
0.000870529043319 -0.103516093482 0
-0.000212901462286 -0.106685355312 0
8.28385296289e-06 -0.0998080224986 0
-0.00124237876876 -0.106116490961 0
0.0012337798431 -0.106119615329 0
0.00136106769417 -0.106422840531 0
0.00140090479497 -0.106558247493 0
-0.00141082293888 -0.106551850951 0
-0.000322289019692 -0.102789425437 0
-0.000198288594867 -0.10065444995 0
0.00112783855456 -0.105469981674 0
-0.00137487751934 -0.106441461349 0
0.000391629749061 -0.102788070594 0
-0.00114710192038 -0.10542455686 0
-0.000767381896819 -0.104272223965 0
-0.000393339399285 -0.105378539457 0
0.000377393476135 -0.10538325334 0
-0.000362338512927 -0.104424759116 0
0.00097972485071 -0.104434186423 0
0.000765146206273 -0.104329688453 0
-0.00113861735256 -0.106482551743 0
0.00112625064736 -0.106489488928 0
3.27252108232e-05 -0.0993672831193 0
0.000123105948862 -0.100554073937 0
-0.000568715501096 -0.0988405081549 0
0.000757140335768 -0.0996122163785 0
0.000714705750411 -0.101454531122 0
-0.000789722088543 -0.0996579592234 0
-0.000739932243627 -0.101526872356 0
-0.000907326883095 -0.104398649653 0
-3.44826672042e-05 -0.10477208579 0
0.00032369896957 -0.10355422355 0
-0.00122979680345 -0.105252501716 0
1.72443411527e-05 -0.104776086489 0
-0.000342038226596 -0.103557002841 0
-0.000228349472729 -0.101040604447 0
0.000281512888694 -0.105972805071 0
0.00020904758283 -0.100962346349 0
0.000847720349116 -0.105689634153 0
0.00120111449489 -0.105138272124 0
0.000459345472717 -0.107258949266 0
-0.00136653781187 -0.106313791301 0
0.00135612494106 -0.106322558344 0
0.00020533330661 -0.0981104684827 0
-0.000802010466427 -0.105105374688 0
0.000652625974553 -0.0988762813105 0
0.00077856796443 -0.105110261444 0
0.0010854025282 -0.10452030786 0
0.00128442283628 -0.106581174586 0
-0.00129566240953 -0.106574067502 0
-0.00109732993915 -0.104516559484 0
-0.000876600800853 -0.105738382312 0
-8.82143646594e-05 -0.0994803178121 0
-0.00132967286909 -0.105727849054 0
-0.000970795268696 -0.103644442899 0
-0.00061025743159 -0.102931102447 0
0.000448607382561 -0.104274426811 0
-0.00144988663476 -0.106681401119 0
0.00144141762988 -0.106687331869 0
2.91334744575e-06 -0.103092777931 0
-0.000419975812545 -0.10732488978 0
0.0013209714848 -0.105757424651 0
-4.62484304691e-05 -0.0991875723958 0
0.000959877579802 -0.103659210123 0
0.000690205629381 -0.10262801886 0
0.000219235871847 -0.104935630931 0
-0.00140933300203 -0.106293145708 0
0.00140067244643 -0.10629751332 0
0.000822671527779 -0.104936757817 0
0.00112082383153 -0.105950871559 0
-0.000629174546855 -0.102258399424 0
-0.00095521925078 -0.105495631761 0
0.000899509536015 -0.105504705976 0
-0.000607804514227 -0.105898905997 0
0.000592974649566 -0.10590482451 0
-8.27406399294e-05 -0.100229035211 0
0.00024801440884 -0.107243768211 0
-0.000529191952225 -0.107549513361 0
-0.00020811267065 -0.101841425613 0
-0.000418668116173 -0.0981383272002 0
0.000515689572119 -0.107567159057 0
0.000224376952898 -0.101809996166 0
9.75226770549e-05 -0.100478491912 0
-0.000292713217894 -0.107209786016 0
-0.00026700727237 -0.102196449009 0
-0.000447985571991 -0.104226537115 0
-0.000351885815541 -0.105895090094 0
0.00043598589098 -0.104216118957 0
0.000623741298106 -0.102624156947 0
-0.000644894624077 -0.102623493283 0
-0.000895598928827 -0.106275087508 0
0.000882031944939 -0.106281665712 0
-0.000152902729567 -0.100406347665 0
-5.46500774087e-06 -0.0998522057606 0
0.000447041167747 -0.101776020191 0
-0.000460287242608 -0.101738954395 0
-0.00124113985216 -0.10582115682 0
-0.000674200472877 -0.104617681073 0
0.000703985587501 -0.103346203735 0
-0.000745010160238 -0.10677830966 0
0.00121568294548 -0.105831616036 0
0.00127444254797 -0.105669380218 0
0.000283438208197 -0.103513125465 0
-0.000730068746276 -0.103451359467 0
-0.00146450193647 -0.106623478601 0
0.00145553022426 -0.106629625792 0
0.000125325257702 -0.101533055377 0
0.000236759997914 -0.102202492635 0
-0.000301896812692 -0.103656155356 0
0.000555625900751 -0.107557928364 0
-2.27001524068e-05 -0.0995583340549 0
0.00120981012636 -0.106978124199 0
-0.00120614118479 -0.106985626313 0
-0.000139793597482 -0.103262172384 0
0.000103932113096 -0.103298191302 0
-0.000589708975211 -0.107529654166 0
-0.0011520334911 -0.105856065437 0
-0.00114860822559 -0.105030751792 0
-0.0011888502121 -0.106422934394 0
-0.000911562070638 -0.107109965237 0
-0.00109717914746 -0.104739723351 0
0.00114495786026 -0.105072288517 0
0.000955145328074 -0.10678742146 0
0.000900614955604 -0.107124793278 0
0.00120590945945 -0.106334641908 0
-0.000201507739439 -0.101365340738 0
-0.000958261821871 -0.106763703512 0
-0.000336438952928 -0.101048945531 0
-6.46504476911e-05 -0.107331909211 0
-7.97152688393e-05 -0.104785564478 0
0.000638840276939 -0.103017178373 0
-0.000114651418138 -0.10517012809 0
0.000303039154871 -0.100975055043 0
9.7851055975e-05 -0.105174731725 0
0.00140635142532 -0.106591481902 0
0.000513980359687 -0.0983182277404 0
-0.00101395639101 -0.106098392601 0
0.00100086161187 -0.10610445332 0
-0.00042255460265 -0.105695537171 0
0.00040685766373 -0.105701015224 0
-0.000872488340605 -0.105067077072 0
-0.00129818515617 -0.105675242877 0
0.00012972442617 -0.0986300725013 0
-0.000382065980645 -0.105321769748 0
-0.000849719779336 -0.105796886955 0
0.000835865191445 -0.105801824954 0
-0.00141310508519 -0.106572799722 0
0.00136282107617 -0.106132059675 0
0.000615033349369 -0.10213985475 0
-0.00100911956751 -0.106430605974 0
0.000996078448447 -0.106437513291 0
0.00067646964482 -0.106940044957 0
-0.00136565145659 -0.106121504978 0
-0.00120921870844 -0.106590124052 0
0.00119731696021 -0.106597456403 0
0.000962033383775 -0.100413806912 0
0.00010943703791 -0.100421774023 0
0.00115354651941 -0.106946042592 0
-0.00116201091346 -0.106942139755 0
-0.000949471847555 -0.104371509541 0
0.000231003336071 -0.0992551793262 0
6.44994095739e-06 -0.101430556799 0
-9.26719136271e-05 -0.098669829937 0
0.00118147166786 -0.104857882626 0
0.000940659773922 -0.104393645803 0
-0.000799636692536 -0.102987639863 0
-0.000874975695467 -0.098960155943 0
-0.000952038864875 -0.100433746163 0
0.0012096974171 -0.105650849939 0
-0.00122064244942 -0.106288269358 0
0.0012091615223 -0.106294095525 0
0.000568781734812 -0.105839313862 0
-0.00119424880214 -0.104866435025 0
-0.000834423706682 -0.103177055496 0
0.000350790251304 -0.102847840369 0
-0.000627765567111 -0.105834512867 0
-6.102969261e-05 -0.106427425909 0
0.000244716718694 -0.104309996747 0
-0.000262465098905 -0.104313576242 0
-0.000765570357934 -0.104724998223 0
0.000721632452748 -0.104730707998 0
-0.0013981570119 -0.10678062405 0
0.00139193741885 -0.106785707181 0
-0.000672904756212 -0.1023337828 0
0.000829969478813 -0.103261019113 0
-0.000425193910358 -0.102952575031 0
0.000737689754578 -0.10632650162 0
-0.000611439344069 -0.0983636423111 0
0.000689637886009 -0.104361636201 0
0.00135733880589 -0.106618190963 0
-0.00136791271616 -0.10661105902 0
-0.000539019817025 -0.10515248157 0
-0.000292313878057 -0.0990980326459 0
0.000523627721314 -0.105156801472 0
-0.000481464731397 -0.101646540156 0
0.000308774251097 -0.106631073938 0
0.000350609997591 -0.10759163331 0
0.00110421658361 -0.104749592575 0
-0.00102281982969 -0.104159222926 0
0.00135945182698 -0.106443634346 0
-0.00136966611936 -0.106437662873 0
0.0012852891801 -0.106682626793 0
-0.00129662232246 -0.106667322276 0
-3.37536836012e-05 -0.0999604205502 0
0.00102442615977 -0.105242281915 0
0.000972832350099 -0.0990520258154 0
4.28480179998e-05 -0.0978477895331 0
3.36820701348e-05 -0.0997531870921 0
-0.00128845789699 -0.105662710646 0
-0.00102774560089 -0.105294435489 0
-0.000660176224939 -0.106081465893 0
0.00064561894009 -0.106087753975 0
0.000180223408253 -0.102823865662 0
0.00044187787052 -0.101521412666 0
-0.000250513459188 -0.0979634162905 0
0.000929867928978 -0.107237430101 0
-0.00115877736147 -0.106018889546 0
0.00114133013203 -0.106025450633 0
0.000965131003317 -0.103952030688 0
-0.00100890841295 -0.107170520051 0
-0.000331054259605 -0.107616426805 0
0.00127324631384 -0.105441075348 0
-0.000808791728508 -0.106392615066 0
-0.000284344682269 -0.101161842744 0
0.000855976727462 -0.103867191045 0
0.00101517833105 -0.104056221044 0
0.000610894461893 -0.102334584546 0
0.000845981041489 -0.103135540448 0
-0.000805094149382 -0.103852845177 0
-0.0012944818702 -0.106344357841 0
0.000416001351316 -0.100096134579 0
0.000115297111056 -0.101053589559 0
-0.00129887714656 -0.106275437446 0
0.00128758174749 -0.106285918196 0
-0.00076029635327 -0.10621529144 0
0.000746128075618 -0.106221833462 0
0.000205071389328 -0.100559808248 0
0.00106844068914 -0.105652690325 0
0.00101530944809 -0.105714940323 0
0.000268912284113 -0.101171342367 0
-0.00103601247448 -0.10407219092 0
-0.000355293481773 -0.102218482318 0
-0.00115514084973 -0.105706347443 0
-0.00122641956472 -0.106504504896 0
0.00121465729537 -0.106511420881 0
0.00010669619012 -0.107406279114 0
-0.000262554656889 -0.103742619837 0
-0.000231887579159 -0.104450387955 0
-0.00127977128019 -0.10543157283 0
0.00038400728737 -0.102214137879 0
-0.000462458502954 -0.100098743317 0
-0.00119113398766 -0.105496332338 0
0.000672144052152 -0.103796585903 0
0.00035497180277 -0.107670157593 0
0.000964390679531 -0.102093956849 0
0.00021823533487 -0.104455584242 0
-0.00036587328906 -0.106564518374 0
-5.28664561954e-05 -0.0997504416973 0
0.000277053813209 -0.103784527821 0
-0.000134925910269 -0.101323786312 0
0.000724110081786 -0.103214334873 0
-0.00101095084629 -0.102109084679 0
-0.000669119865642 -0.103804134937 0
-0.0007434428342 -0.103216736267 0
-9.38837639222e-06 -0.0993371236046 0
0.00013562251576 -0.101296391148 0
6.1257525381e-05 -0.0983554540333 0
0.0014335243193 -0.106628684633 0
-0.00144310724978 -0.106621951743 0
0.00118890493931 -0.100879188465 0
0.00117009456254 -0.0998706755283 0
-0.000121561593521 -0.107547178752 0
-0.00118114655908 -0.0998681131922 0
-0.00120079589405 -0.100906489031 0
0.000516262026132 -0.104079039484 0
0.000277775321565 -0.104655054213 0
-0.000252784307426 -0.100652294662 0
-0.000534664025314 -0.104082606536 0
-0.000295706373268 -0.10465902924 0
0.00131876193953 -0.106234627664 0
0.000613399477651 -0.106754909403 0
-0.000117863152853 -0.102685395343 0
0.000456538917238 -0.0979744380686 0
-0.000557585087227 -0.0992603692404 0
0.00078473099983 -0.0983771726529 0
1.98437611769e-05 -0.100145701146 0
0.0012719780591 -0.105990071035 0
0.00135511244018 -0.106535509987 0
-0.00136561578457 -0.106528924925 0
-0.00102990711728 -0.105688376946 0
0.00140675854168 -0.106433267563 0
-0.00141623152173 -0.106427732501 0
0.000157954631979 -0.105533032096 0
-0.000716457487866 -0.102691285267 0
0.000221028581478 -0.10754477396 0
-0.000218367193842 -0.0983942092044 0
0.000451394093927 -0.103411781882 0
-0.000193687384253 -0.105521537647 0
0.000177185608737 -0.105526709455 0
-0.00132783108179 -0.106151082374 0
0.000571289787106 -0.10248726756 0
-0.000271264882624 -0.101923250079 0
-0.000387532198417 -0.10190299555 0
0.00105812313672 -0.106458841011 0
-0.000180509067512 -0.100552606758 0
-0.000598952134965 -0.102459428682 0
0.000556032943649 -0.0993544238693 0
9.31415313285e-06 -0.10030206394 0
-0.00136904119449 -0.106006885899 0
-0.000488197897112 -0.104000275305 0
-0.000103832767644 -0.0991752932776 0
-0.000167087818928 -0.104150742527 0
-0.00051863453103 -0.103210935008 0
0.000275735192921 -0.102963332159 0
-0.000322400087267 -0.105093670718 0
0.000306368445961 -0.105098156773 0
-0.000292581491183 -0.102964541246 0
0.000194361907551 -0.102314968204 0
0.00014565006129 -0.0989459072656 0
0.000398636521363 -0.102139203945 0
0.00141614716729 -0.106449889889 0
-0.00142383509368 -0.106437081264 0
-0.00032346456982 -0.107696149867 0
0.000352047845287 -0.101935391786 0
0.00135843432052 -0.106003402714 0
5.48903140264e-05 -0.0989912100825 0
-0.00087258074724 -0.0985683080414 0
-0.00119606066612 -0.106401148884 0
0.0011840137436 -0.106407704448 0
-0.00107594475854 -0.106554080332 0
0.001063238018 -0.106561362579 0
-0.000369782215739 -0.0987210454877 0
-0.00124192639529 -0.105457881205 0
0.000403479170645 -0.101168497741 0
0.0012673611026 -0.106554282543 0
0.000713092380551 -0.102938153174 0
-0.000230009135225 -0.100767391084 0
0.00131717462249 -0.106157467397 0
-0.00125350273444 -0.106634920353 0
0.00124191680712 -0.106642453238 0
0.000342798250009 -0.105381827699 0
0.00096285396981 -0.10488746924 0
1.22787046712e-05 -0.10367403131 0
-0.00112679844059 -0.106170851787 0
0.00111443694476 -0.106176678317 0
-0.000814518058052 -0.105389340632 0
-0.000104632242373 -0.100704585291 0
0.000784754805406 -0.10540504772 0
0.000580925259781 -0.102124541218 0
0.000318955089638 -0.0983254448924 0
-0.0011781212065 -0.104854428481 0
-2.68082217109e-05 -0.10368926169 0
-0.000555330666419 -0.105381957341 0
0.000539809745553 -0.105386381801 0
0.000737725178014 -0.105412687594 0
-0.000877395076789 -0.104585041527 0
-0.000340212136155 -0.107735207348 0
-0.000888194335776 -0.106386331872 0
0.000874604790078 -0.106393206319 0
0.000381775654401 -0.0989261959925 0
6.26983927453e-05 -0.105035525731 0
-8.01366924674e-05 -0.10503991072 0
-0.000299937445217 -0.101584637933 0
-0.000340668579556 -0.101058914405 0
-0.000268492366924 -0.107481070265 0
-0.000603973364218 -0.104515720296 0
-0.000515907006464 -0.104815288771 0
0.00121748431665 -0.105388358311 0
0.000247797643571 -0.104414059438 0
0.000588656487539 -0.104541705982 0
0.000300718002183 -0.10153477087 0
0.0014345107891 -0.106552429325 0
-0.00144369871466 -0.10654662332 0
-0.000839355846039 -0.103954771647 0
-0.000935713226481 -0.105956869439 0