# vtk DataFile Version 2.0
Generated with Solid Solver
ASCII
DATASET UNSTRUCTURED_GRID
POINTS 999 float 
0.2 4.325 0.0
1.4 4.325 0.0
1.4 4.825 0.0
0.2 4.825 0.0
1.4 4.34523264049 0.0
1.4 4.36751203886 0.0
1.4 4.39204525371 0.0
1.4 4.4190602782 0.0
1.4 4.44880817466 0.0
1.4 4.48156541084 0.0
1.4 4.51763640748 0.0
1.4 4.5573564007 0.0
1.4 4.60109451608 0.0
1.4 4.64925723872 0.0
1.4 4.70229217343 0.0
1.4 4.76069218095 0.0
1.33333333333 4.825 0.0
1.26666666667 4.825 0.0
1.2 4.825 0.0
1.13333333333 4.825 0.0
1.06666666667 4.825 0.0
1.0 4.825 0.0
0.933333333334 4.825 0.0
0.866666666668 4.825 0.0
0.800000000001 4.825 0.0
0.733333333334 4.825 0.0
0.666666666668 4.825 0.0
0.600000000001 4.825 0.0
0.533333333334 4.825 0.0
0.466666666667 4.825 0.0
0.4 4.825 0.0
0.333333333334 4.825 0.0
0.266666666667 4.825 0.0
0.2 4.76069218095 0.0
0.2 4.70229217343 0.0
0.2 4.64925723872 0.0
0.2 4.60109451608 0.0
0.2 4.5573564007 0.0
0.2 4.51763640748 0.0
0.2 4.48156541084 0.0
0.2 4.44880817466 0.0
0.2 4.4190602782 0.0
0.2 4.39204525371 0.0
0.2 4.36751203886 0.0
0.2 4.34523264049 0.0
0.212131543907 4.30926329506 0.0
0.224675715302 4.29385348652 0.0
0.23762369102 4.27878141198 0.0
0.250966423879 4.26405760374 0.0
0.264694484585 4.24969246611 0.0
0.278798324214 4.23569599189 0.0
0.293267939266 4.22207810803 0.0
0.308093289028 4.20884826442 0.0
0.323263842145 4.19601585877 0.0
0.338769084145 4.18358978512 0.0
0.354597997314 4.17157887342 0.0
0.37073960121 4.15999145532 0.0
0.387182441982 4.14883575334 0.0
0.403915091795 4.13811952025 0.0
0.420925712897 4.12785033813 0.0
0.438202430937 4.11803537461 0.0
0.455733079095 4.10868154223 0.0
0.473505374364 4.09979539439 0.0
0.491506842655 4.09138316882 0.0
0.509724826085 4.0834507802 0.0
0.528146580414 4.07600377808 0.0
0.546759103951 4.06904741762 0.0
0.56554943677 4.06258654322 0.0
0.584504260001 4.05662573401 0.0
0.60361041518 4.0511691282 0.0
0.622854334779 4.04622060039 0.0
0.642222678753 4.04178358113 0.0
0.661701681839 4.03786122392 0.0
0.681277836375 4.03445624851 0.0
0.700937245817 4.03157107217 0.0
0.720666255912 4.02920769845 0.0
0.740450894784 4.02736780161 0.0
0.76027736978 4.02605266363 0.0
0.780131702711 4.02526321235 0.0
0.799999999998 4.025 0.0
0.819868297285 4.02526321235 0.0
0.839722630216 4.02605266363 0.0
0.859549105212 4.02736780161 0.0
0.879333744085 4.02920769845 0.0
0.89906275418 4.03157107217 0.0
0.918722163621 4.03445624851 0.0
0.938298318157 4.03786122392 0.0
0.957777321244 4.04178358113 0.0
0.977145665218 4.04622060039 0.0
0.996389584817 4.0511691282 0.0
1.01549574 4.05662573401 0.0
1.03445056323 4.06258654322 0.0
1.05324089605 4.06904741762 0.0
1.07185341958 4.07600377808 0.0
1.09027517391 4.0834507802 0.0
1.10849315734 4.09138316882 0.0
1.12649462563 4.09979539439 0.0
1.1442669209 4.10868154222 0.0
1.16179756906 4.1180353746 0.0
1.1790742871 4.12785033813 0.0
1.1960849082 4.13811952024 0.0
1.21281755802 4.14883575334 0.0
1.22926039879 4.15999145532 0.0
1.24540200269 4.17157887342 0.0
1.26123091585 4.18358978512 0.0
1.27673615785 4.19601585877 0.0
1.29190671097 4.20884826442 0.0
1.30673206073 4.22207810803 0.0
1.32120167579 4.23569599189 0.0
1.33530551541 4.24969246611 0.0
1.34903357612 4.26405760374 0.0
1.36237630898 4.27878141198 0.0
1.3753242847 4.29385348652 0.0
1.38786845609 4.30926329506 0.0
1.05632730172 4.46025283906 0.0
0.549964048968 4.4630053958 0.0
0.806135520676 4.31186690218 0.0
0.603895783049 4.26079310371 0.0
1.22984770884 4.38318704125 0.0
0.3703382852 4.38423552752 0.0
0.995322815839 4.25565031136 0.0
0.728315816804 4.1765935937 0.0
0.872128173905 4.17288724072 0.0
1.14059401893 4.27298468684 0.0
0.461553191009 4.27181671009 0.0
0.784706775856 4.56821390922 0.0
0.398287125272 4.57945970538 0.0
1.20625306554 4.58334743514 0.0
0.624100842742 4.1589824436 0.0
0.5257453845 4.18811776279 0.0
0.978502430793 4.15488737058 0.0
1.07419209812 4.18825154482 0.0
0.364313698077 4.28677035763 0.0
1.23509538257 4.28681716733 0.0
0.68124123937 4.39284548972 0.0
1.31679378691 4.35012066749 0.0
0.283206213094 4.35012066749 0.0
0.791498533126 4.11467141721 0.0
0.931481076052 4.3801344917 0.0
0.966719065571 4.62778042839 0.0
0.684451667517 4.11068036752 0.0
0.618335406951 4.62686910993 0.0
0.450982331762 4.19686171732 0.0
0.915674266355 4.10995633851 0.0
1.14900051594 4.19689012964 0.0
1.30193709687 4.4481448133 0.0
0.298574667609 4.44816296922 0.0
1.05734787542 4.34990107617 0.0
0.539273225177 4.35252599628 0.0
0.709896798149 4.27721026287 0.0
0.895708916005 4.26924194389 0.0
0.813273511364 4.43835766235 0.0
0.559289631452 4.13230879113 0.0
1.04001407307 4.13281539633 0.0
0.801161810585 4.23146244955 0.0
0.665113819616 4.52056650186 0.0
0.852577362173 4.09111846388 0.0
0.390256727869 4.2242806298 0.0
1.20974450479 4.22428104599 0.0
0.921542541183 4.52778058719 0.0
1.14030889032 4.36437344809 0.0
1.15600477272 4.46808538305 0.0
0.435243219029 4.4750581257 0.0
0.462045157798 4.36654654286 0.0
0.735806812738 4.08472269746 0.0
1.30082934537 4.29793772796 0.0
0.299170654625 4.29793772796 0.0
0.533651712118 4.26265983853 0.0
0.666130919144 4.21652131559 0.0
1.0676097303 4.26179469382 0.0
1.08054433577 4.58530946155 0.0
0.506773767255 4.56568295079 0.0
0.626745312844 4.10124420826 0.0
0.933845304214 4.2106954732 0.0
0.293717639664 4.55175000185 0.0
0.312505022079 4.66426411351 0.0
1.3058164124 4.55154930624 0.0
1.29054387065 4.66302765963 0.0
0.973467966326 4.09941619478 0.0
0.487935413164 4.15087084015 0.0
0.461549079751 4.68836834982 0.0
1.11203248746 4.15093503889 0.0
1.14453515393 4.70617370303 0.0
0.840217564202 4.68891146633 0.0
0.585347033288 4.20539048534 0.0
0.619177396637 4.34227576306 0.0
0.331644410315 4.24962190462 0.0
1.26835558968 4.24962190462 0.0
1.01536156978 4.19987473052 0.0
0.809331033562 4.07065709122 0.0
0.982321540791 4.33437358971 0.0
0.725600576914 4.66999651799 0.0
0.812291456186 4.16642942492 0.0
0.335887692543 4.33918235669 0.0
1.26344844681 4.34017131907 0.0
1.23449730504 4.49457441524 0.0
1.34334172095 4.40539551957 0.0
0.256658279045 4.40539551957 0.0
0.741646926828 4.34287908527 0.0
0.674799084703 4.16673768522 0.0
1.18647435526 4.30955189749 0.0
0.360563250283 4.49596479569 0.0
0.873716483853 4.33845499203 0.0
0.418704489949 4.31146264283 0.0
0.492670911224 4.22931614809 0.0
0.403480880356 4.19046776931 0.0
1.19651541215 4.1904686246 0.0
0.728649253738 4.46214546491 0.0
1.00883674467 4.40174664879 0.0
1.11035034557 4.23161841276 0.0
0.261968539765 4.3130079512 0.0
1.33803146023 4.3130079512 0.0
0.74649980488 4.1318354354 0.0
0.927597725248 4.1577597079 0.0
0.892956618256 4.07619338913 0.0
0.659794281787 4.07951387326 0.0
0.587663534405 4.09486537006 0.0
0.942353209926 4.07935300973 0.0
1.01493747319 4.09476013719 0.0
0.613130017774 4.41369803882 0.0
0.449373501074 4.15377191978 0.0
0.514840228377 4.12225850006 0.0
0.497057592 4.41333092106 0.0
1.15061382426 4.15379293084 0.0
1.08514419473 4.12228328152 0.0
0.745617635771 4.23098957592 0.0
0.87523452213 4.59853036549 0.0
0.855262884783 4.2258970831 0.0
1.01126200032 4.53280064162 0.0
1.09391916408 4.40632408872 0.0
1.04436265455 4.71482000827 0.0
0.314320181089 4.38773968607 0.0
1.28649331902 4.38743720145 0.0
0.771211579291 4.06316862024 0.0
0.432259099658 4.24006002157 0.0
0.698583889427 4.07144353526 0.0
1.16802128371 4.238862881 0.0
1.09587629216 4.3086676659 0.0
1.35920470355 4.35666960471 0.0
0.240795296449 4.35666960471 0.0
0.504003580654 4.30815758118 0.0
0.579942709371 4.5342075073 0.0
0.875915224914 4.12815792528 0.0
0.426503136644 4.40717733008 0.0
0.57541416445 4.30365301522 0.0
0.683877978289 4.33161848113 0.0
0.888061695889 4.44633509246 0.0
0.26012287522 4.49859249103 0.0
1.33987712478 4.49859249103 0.0
0.801393572636 4.37060096582 0.0
0.558460082533 4.72496728209 0.0
1.1741923373 4.41132830101 0.0
0.83220012886 4.12779415912 0.0
1.02815069622 4.30053276509 0.0
0.948308583502 4.2880204454 0.0
0.846588933095 4.50834596945 0.0
0.343666800815 4.43485820652 0.0
1.25632767671 4.43480360053 0.0
0.97849585731 4.47031535602 0.0
1.10170977548 4.51507265998 0.0
0.662193131828 4.26809398492 0.0
0.400503668388 4.26881657105 0.0
1.20117145985 4.26130427377 0.0
0.350957892513 4.21796558019 0.0
1.24904210749 4.21796558019 0.0
0.771964652188 4.18905379403 0.0
0.932165148285 4.72736281402 0.0
0.373672364094 4.73321357765 0.0
0.760245937722 4.28409350779 0.0
0.848718469252 4.05767763075 0.0
1.23385612561 4.7358294747 0.0
0.846421485813 4.28065918421 0.0
0.651597058631 4.13043284014 0.0
0.650489852552 4.72138045504 0.0
0.58457834847 4.16375088261 0.0
0.48701309933 4.18859927013 0.0
0.708495738406 4.58856947756 0.0
1.11203398596 4.18878062515 0.0
0.54865558244 4.10250047869 0.0
1.05126102377 4.10234629471 0.0
0.300013757486 4.26259646442 0.0
1.29998624251 4.26259646442 0.0
0.9465032388 4.12718070354 0.0
0.708587583337 4.14146095907 0.0
0.973348904468 4.19537871864 0.0
0.628721855632 4.19538356945 0.0
0.380175010018 4.34021880077 0.0
0.662092932411 4.45899041267 0.0
1.05133526787 4.22221992007 0.0
0.528087045766 4.64327882187 0.0
1.22233124543 4.33521693908 0.0
1.19001193434 4.36273586668 0.0
0.853024099244 4.39544003492 0.0
0.542800296246 4.22324366905 0.0
0.247706318737 4.45239119247 0.0
1.35229368126 4.45239119247 0.0
0.599153768578 4.12953797005 0.0
1.01616570494 4.16227683178 0.0
0.744705786938 4.40569544575 0.0
1.31929001115 4.73702550052 0.0
0.777615355331 4.15113602511 0.0
1.33132411895 4.60631378639 0.0
0.265621610877 4.60975488866 0.0
0.532023338888 4.15374454388 0.0
1.0697792195 4.15241429251 0.0
0.286371037106 4.73010312914 0.0
0.497725885905 4.50153668256 0.0
0.46053455822 4.31587947599 0.0
0.433799237968 4.54629400991 0.0
0.388624781906 4.65094200004 0.0
0.554823673752 4.40451940232 0.0
1.1421595646 4.31818301431 0.0
1.14760043966 4.61655103139 0.0
1.21258698805 4.65320200685 0.0
1.16279096046 4.53292621409 0.0
0.995762647814 4.12508772517 0.0
0.456229040627 4.61456685246 0.0
0.707289391156 4.21520271873 0.0
0.763036833302 4.74285445535 0.0
0.78386198569 4.49787013126 0.0
[...]
POINT_DATA 999
VECTORS Displacement float
-0.00241618557454 -0.176858436288 0
0.00240273758303 -0.176867167396 0
0.0 -0.18 0
0.0 -0.18 0
0.00259392263959 -0.176853157993 0
0.00277841021695 -0.17683413101 0
0.002943791036 -0.176811395924 0
0.00308387090445 -0.176801181105 0
0.00316805663423 -0.176811763734 0
0.00321983914327 -0.176852054253 0
0.00318896271848 -0.17692953751 0
0.00306871401578 -0.177052745927 0
0.00284567546836 -0.177257182515 0
0.00247607199866 -0.177564609935 0
0.00194186493783 -0.17803178225 0
0.00117324468075 -0.178746749328 0
0.0 -0.18 0
0.0 -0.18 0
0.0 -0.18 0
0.0 -0.18 0
0.0 -0.18 0
0.0 -0.18 0
0.0 -0.18 0
0.0 -0.18 0
0.0 -0.18 0
0.0 -0.18 0
0.0 -0.18 0
0.0 -0.18 0
0.0 -0.18 0
0.0 -0.18 0
0.0 -0.18 0
0.0 -0.18 0
0.0 -0.18 0
-0.00116647496001 -0.178752219255 0
-0.00193547050649 -0.178036156397 0
-0.0024942631538 -0.177565064771 0
-0.00285263310451 -0.177252041126 0
-0.0030740985895 -0.177045090781 0
-0.00319689867858 -0.176920784208 0
-0.00322920437696 -0.176843851634 0
-0.00317819078164 -0.176803620192 0
-0.00309469039388 -0.176792931792 0
-0.00295531493904 -0.176802965161 0
-0.00279063892553 -0.176825538949 0
-0.00260680793171 -0.176844467269 0
-0.0022588781478 -0.176756133549 0
-0.00208592894037 -0.176642326499 0
-0.00189896624507 -0.176509942366 0
-0.00169440700306 -0.176359223325 0
-0.00147343933629 -0.176183891446 0
-0.00124228674961 -0.175979817854 0
-0.000997971397429 -0.17574969942 0
-0.00073096461956 -0.175490665421 0
-0.000445131864053 -0.17518183006 0
-0.000154259049715 -0.174847447435 0
0.0001556615244 -0.174463888796 0
0.000496533635532 -0.174028252404 0
0.000849038809142 -0.173519869666 0
0.00123067493145 -0.172938972071 0
0.00163842162864 -0.172258805523 0
0.00217783972285 -0.171189023279 0
0.00255025532029 -0.170178500711 0
0.0028368750911 -0.169160570491 0
0.00304136497345 -0.168197203237 0
0.00317897729346 -0.167252988222 0
0.00325636489992 -0.166362706941 0
0.0032645454708 -0.165510482738 0
0.00322675176507 -0.164719427165 0
0.00313370598041 -0.16397183466 0
0.00299952751848 -0.163287827884 0
0.00281495809694 -0.162656761709 0
0.00260156724944 -0.162090236777 0
0.00235004722287 -0.161586159005 0
0.00207962057433 -0.161151053812 0
0.00177519592854 -0.160772026301 0
0.00145454928544 -0.160463498429 0
0.00110809021032 -0.160212089833 0
0.0007542182345 -0.160024422129 0
0.000385979287235 -0.159895197002 0
-2.63915074026e-05 -0.159802556095 0
-0.000418279529 -0.159900323281 0
-0.000787605806315 -0.160026993875 0
-0.00114155365777 -0.160209093355 0
-0.00148030450772 -0.160459579914 0
-0.00180129568379 -0.160772950472 0
-0.00210532728056 -0.161151754622 0
-0.00238522453477 -0.161597776539 0
-0.002625828333 -0.162095089304 0
-0.00283753621916 -0.162660018131 0
-0.00302145597696 -0.163289657865 0
-0.0031559823864 -0.163973153275 0
-0.00324931907266 -0.164719451092 0
-0.00328893677044 -0.165511825237 0
-0.00327935151236 -0.166365395045 0
-0.00320175551792 -0.167254829657 0
-0.00306415726768 -0.16819840643 0
-0.00286078933529 -0.169160195859 0
-0.00257208483965 -0.170184021444 0
-0.00218826349856 -0.171211087606 0
-0.00166128384502 -0.172254738311 0
-0.00125215548957 -0.172941554853 0
-0.000869327919443 -0.173524439459 0
-0.000515996746683 -0.174033750696 0
-0.000174321656823 -0.174470003095 0
0.000136291295879 -0.174853984464 0
0.000427798799876 -0.175188692729 0
0.00071419467045 -0.175497787728 0
0.000981706710504 -0.175757002179 0
0.00122647944232 -0.17598730137 0
0.00145808559652 -0.176191541748 0
0.00167943484895 -0.176367012319 0
0.00188434672242 -0.176517909229 0
0.00207166872923 -0.176650517121 0
0.00224500958608 -0.176764580381 0
0.00213706110378 -0.173661710236 0
-0.00209892550207 -0.173642166405 0
3.70017948158e-05 -0.167807523067 0
-0.00103496465982 -0.168257062777 0
0.00276996765735 -0.175035066635 0
-0.0027829330741 -0.175035594996 0
0.000972127221222 -0.168112149799 0
2.61200257243e-05 -0.164168997277 0
-7.04713717986e-05 -0.164073483256 0
0.00174539014228 -0.172038709708 0
-0.00174215889645 -0.171960242775 0
-0.000121911291822 -0.174679591495 0
-0.00246429400023 -0.176910004649 0
0.00244777010628 -0.176988891421 0
0.000352007083614 -0.165256249322 0
-0.000234022058769 -0.168599400507 0
-0.000449981680998 -0.165219371194 0
0.000221325046418 -0.168600409386 0
-0.00201266357794 -0.174488402184 0
0.00199780811034 -0.174480182959 0
-0.00106684882827 -0.170619211207 0
0.00263827009683 -0.176040007743 0
-0.00265067176901 -0.176033147739 0
4.69890810093e-05 -0.162142313244 0
0.00114713168124 -0.17040115482 0
0.00109020929585 -0.176402777356 0
0.000841404528513 -0.162918678215 0
-0.00119081907282 -0.176444242577 0
-0.000537116328242 -0.171377793329 0
-0.000875336004453 -0.162902344564 0
0.000520693320163 -0.171382467179 0
0.00307978943296 -0.176315219474 0
-0.00308803751443 -0.176306428649 0
0.00197045322896 -0.171469159879 0
-0.00201378780355 -0.171581072182 0
-0.000555429020519 -0.16719232925 0
0.000536419532618 -0.167022028701 0
0.000120431252322 -0.171366716502 0
0.00111457093589 -0.166339970249 0
-0.00111900626562 -0.166328129632 0
-4.83459899265e-06 -0.165456168654 0
-0.00116241708242 -0.173901718812 0
-0.000525042118293 -0.161706638661 0
-0.00107552214261 -0.173573482175 0
0.00105847517305 -0.1735800217 0
0.00103580791429 -0.173998112796 0
0.00244012217279 -0.173293994137 0
0.00265870305803 -0.175013158225 0
-0.00270497569095 -0.175207807071 0
-0.00244993648918 -0.173274047344 0
0.000663776028804 -0.161636128259 0
0.00212402253208 -0.175708312038 0
-0.0021380509651 -0.175701471941 0
-0.00138891378238 -0.169885429293 0
-0.000364186089712 -0.166014402925 0
0.00136830561981 -0.169900171417 0
0.00191151382315 -0.176203889327 0
-0.00207387910621 -0.175952530789 0
0.00146547352002 -0.163785728887 0
0.000291961484661 -0.165856605458 0
-0.00292240843115 -0.177075975565 0
-0.0020354672675 -0.178162221612 0
0.00291828925833 -0.177079305269 0
0.00205705427681 -0.178151845438 0
-0.00152484564471 -0.163752731984 0
0.000716687406643 -0.169273309288 0
-0.00143510062222 -0.1781305878 0
-0.000733274110192 -0.169276676514 0
0.00129589930847 -0.178411187789 0
0.0002111164087 -0.177404610312 0
-0.000436629190435 -0.167302467901 0
-0.00144672350795 -0.170026769095 0
-0.00147717413771 -0.175045413237 0
0.00146162167911 -0.175051968221 0
0.000332081235667 -0.167188886391 0
-0.000129586990203 -0.160974234189 0
0.0014098638707 -0.169859296294 0
-0.000428007109872 -0.177045149876 0
-2.94220115911e-05 -0.163591758307 0
-0.00254872410882 -0.175267545458 0
0.00254287307782 -0.175267795961 0
0.002906072302 -0.176150348282 0
0.00299776970523 -0.176448499053 0
-0.00300869006374 -0.176441726701 0
-0.000487195237356 -0.168842044919 0
0.000165760875131 -0.164531633166 0
0.00220719776363 -0.173579843912 0
-0.00293265462888 -0.176199848334 0
0.00059225444191 -0.168804549237 0
-0.00222920589483 -0.173481638383 0
-0.00108745537323 -0.170415266822 0
-0.000368536661949 -0.173035656317 0
0.000350160282741 -0.173039739362 0
-0.000657723392375 -0.172144565547 0
0.0017902886458 -0.171823475761 0
0.00111428185397 -0.17055159364 0
-0.00230226531282 -0.1762261783 0
0.0022884582118 -0.176233528515 0
0.000256069886835 -0.162792534734 0
-0.000296130646359 -0.164328226754 0
-0.00110285395293 -0.161736532089 0
0.00157799942086 -0.162568678847 0
0.00196914257761 -0.164659596995 0
-0.00162630312259 -0.162613954748 0
-0.002018325854 -0.164738079929 0
-0.00164650474481 -0.171829942559 0
0.000618987501603 -0.170982403294 0
0.0016238998707 -0.16769767482 0
-0.00241403880078 -0.173426419595 0
-0.000637687864068 -0.170988320146 0
-0.00164442095215 -0.167699917618 0
-0.000202431196801 -0.165602305461 0
0.000559465222163 -0.175472387669 0
0.000170394259639 -0.165461396674 0
0.0016898760817 -0.174700847643 0
0.00234202028564 -0.173166560699 0
0.000960193423713 -0.178281133704 0
-0.00287756072026 -0.175812273769 0
0.00286595498721 -0.175826070039 0
0.00036709923101 -0.160845669926 0
-0.00135493448425 -0.172438603049 0
0.00124466528714 -0.161732780938 0
0.00131889046286 -0.172439881014 0
0.00192941313121 -0.171476597266 0
0.00269908570862 -0.176493613907 0
-0.00271155883511 -0.176486000239 0
-0.00193947848959 -0.171469215118 0
-0.00174827657925 -0.174799000142 0
-0.000419383256129 -0.162879244967 0
-0.00271246167026 -0.174425831115 0
-0.00153567074943 -0.169840288916 0
-0.000923133999435 -0.168956344858 0
0.000808787221197 -0.1718066477 0
-0.0031476640057 -0.176800940574 0
0.00313746636307 -0.176807750837 0
6.74109728088e-06 -0.169487903051 0
-0.000876709803518 -0.178436581279 0
0.00270876086313 -0.174495605885 0
-0.000186742318097 -0.16256020586 0
0.00152142677335 -0.169840324778 0
0.000946935717765 -0.168165415618 0
0.00041523240721 -0.173246053649 0
-0.00298649564593 -0.1757933788 0
0.0029769654745 -0.175797309577 0
0.00156469893705 -0.173060419328 0
0.00229727369045 -0.175158358888 0
-0.000782020313003 -0.167479094462 0
-0.00178158300144 -0.173546491737 0
0.0016629613995 -0.173545711654 0
-0.00092246201755 -0.174578373983 0
0.00090590301436 -0.174584552155 0
-2.46381780252e-05 -0.164272060231 0
0.000508752697061 -0.178280946032 0
-0.00115057835965 -0.178924953825 0
-0.000259850766531 -0.167076395734 0
-0.000706506636448 -0.160836985692 0
0.00112488116995 -0.178965173496 0
0.00027897038235 -0.1670044004 0
0.000743283876338 -0.16397552796 0
-0.000599818146916 -0.178198942816 0
0.00030985688323 -0.166324885032 0
-0.000310736395811 -0.169938418498 0
-0.000693151213448 -0.175292381604 0
0.00029670823925 -0.169908000561 0
0.00208414698413 -0.166072573822 0
-0.00211040170436 -0.166068552014 0
-0.00166951030863 -0.175645671992 0
0.00165453081753 -0.175652681211 0
-0.000812795311301 -0.163865767909 0
0.000351245762664 -0.163406077175 0
0.000189712586648 -0.166138371598 0
-0.000203886549828 -0.166095268832 0
-0.00251278506363 -0.174518056373 0
-0.00124572422079 -0.172451156322 0
0.000784417781154 -0.16863379996 0
-0.0015513261008 -0.177154941819 0
0.00246718458137 -0.174529371958 0
0.00258472613281 -0.174187340486 0
0.000475741882764 -0.17028796188 0
-0.000834639907756 -0.168820993768 0
-0.00316103395086 -0.176644609367 0
0.00315098598702 -0.176651084253 0
0.00101195640469 -0.165134294955 0
-0.000360685422254 -0.166306842951 0
-0.0005106772512 -0.170575506736 0
0.00123276073157 -0.178950031145 0
5.3997820198e-05 -0.16317590677 0
0.00265958320796 -0.177547822284 0
-0.00264801223537 -0.177572818036 0
0.000597881080723 -0.16768366016 0
-0.000655680810142 -0.167720948076 0
-0.00130389034716 -0.178883059468 0
-0.00234630717733 -0.174930719918 0
-0.00216043980949 -0.172586143378 0
-0.0025039213263 -0.176222207803 0
-0.00196538020027 -0.177869080144 0
-0.00205607665457 -0.172393620799 0
0.0021745434371 -0.17268313612 0
0.00202557562388 -0.177119756016 0
0.00194632517266 -0.177901897389 0
0.00253692796114 -0.176004702308 0
-0.00110935410161 -0.164894040504 0
-0.00202556821072 -0.177067594796 0
-0.000242523382162 -0.165460704035 0
-0.000130558558347 -0.178493234474 0
-0.000147266334716 -0.172938813845 0
0.000983085765316 -0.169098030332 0
0.000376831839558 -0.172326180693 0
0.000191212808329 -0.165326427608 0
-0.000396959058336 -0.172329426104 0
0.00303897860358 -0.176558740466 0
0.000903153045374 -0.161056054788 0
-0.00197250042951 -0.175175120222 0
0.00195818736154 -0.175181480705 0
-0.000435196003172 -0.173978786944 0
0.000417474044425 -0.173984307107 0
-0.00167050897773 -0.173321840975 0
-0.00262983079349 -0.174225545126 0
0.000303172995999 -0.161666488232 0
-0.000733671340197 -0.174046628858 0
-0.00154407653507 -0.174326574159 0
0.00152895952226 -0.174330380923 0
-0.00304137687003 -0.176516577819 0
0.00286391347733 -0.175422429406 0
0.000679936444349 -0.167118998055 0
-0.00196500377218 -0.176077102404 0
0.00195053715944 -0.176084451796 0
0.00141588039073 -0.177526611367 0
-0.00286146461288 -0.175407238335 0
-0.00248784858125 -0.176521904674 0
0.00247460232182 -0.176529758466 0
0.00205097224957 -0.163389152572 0
3.71679317301e-05 -0.164572809346 0
0.00250902593935 -0.177455270676 0
-0.00252260921057 -0.177449887219 0
-0.0015496976614 -0.17088669504 0
0.000661439763425 -0.16245328939 0
7.03324727381e-06 -0.166367347563 0
-0.000203915203056 -0.161749093599 0
0.0022268143515 -0.172376901145 0
0.00155105848646 -0.17093841137 0
-0.00116867970169 -0.168789833417 0
-0.00156820574061 -0.161743213657 0
-0.00203599592355 -0.163425494168 0
0.00244854431367 -0.174403438943 0
-0.0025058871958 -0.175713799577 0
0.00249342146511 -0.175719362623 0
0.0011300633772 -0.175124102898 0
-0.00224608224295 -0.17239683213 0
-0.00109880009629 -0.168673831399 0
-0.000114913635086 -0.167325071161 0
-0.00124445715741 -0.175101162954 0
-0.000119908400205 -0.176485083721 0
0.00144486796561 -0.169408683294 0
-0.00146259173476 -0.169411667731 0
-0.00119422645589 -0.171452931569 0
0.00110912332345 -0.171433863848 0
-0.00305339784968 -0.177062485557 0
0.0030470671775 -0.17706778849 0
-0.00073018182212 -0.167307988772 0
0.00111958740688 -0.168821030458 0
-4.70260651259e-05 -0.167563531503 0
0.00150808677384 -0.176150033141 0
-0.00105021256659 -0.161087640693 0
0.00125468092334 -0.171890389893 0
0.00288822758813 -0.176600712481 0
-0.0028999164651 -0.176593052916 0
-0.000721236506102 -0.172424237379 0
-0.000717517876597 -0.162222934105 0
0.000703422386398 -0.172428062886 0
-0.000496996100468 -0.16645111947 0
0.00062501281505 -0.176914343323 0
0.000744246460684 -0.179041409344 0
0.00207850017899 -0.172382655595 0
-0.00179479772351 -0.171122368902 0
0.00288365096957 -0.176139279539 0
-0.00289478720953 -0.176133133845 0
0.00277070499701 -0.176804187809 0
-0.00278850033149 -0.176769760777 0
-0.000458216941155 -0.163491265561 0
0.00192258183075 -0.172944665893 0
0.00172794424443 -0.161805035255 0
7.56795448109e-05 -0.160434521539 0
-0.000113082906694 -0.163446034789 0
-0.00261373491155 -0.174358793388 0
-0.00192556013885 -0.173072523805 0
-0.00105667210704 -0.175095382235 0
0.00104041718987 -0.175102020178 0
0.000278333912169 -0.168947543609 0
0.000419971018041 -0.166214141367 0
-0.000407050881564 -0.160609752811 0
0.00206111692863 -0.178188749106 0
-0.00233213675671 -0.174991317362 0
0.00230502847046 -0.174998471745 0
0.00166023887436 -0.170712528343 0
-0.0022269621821 -0.178027836143 0
-0.000702141740674 -0.179100759268 0
0.00254777140225 -0.173770771131 0
-0.00165977848621 -0.176278174883 0
0.000112795644538 -0.165166461777 0
0.00147036760198 -0.170691487119 0
0.00168105703725 -0.170501446896 0
0.000545550532398 -0.167109432508 0
0.00124639922927 -0.168953663732 0
-0.00137967535043 -0.170725980029 0
-0.00273396315291 -0.175996039757 0
0.00119585579394 -0.163308373627 0
0.000908928529519 -0.164591809908 0
-0.00270323527299 -0.175694765028 0
0.00269049584776 -0.175712761416 0
-0.00131706618303 -0.175473232088 0
0.00130126299833 -0.17548023069 0
-5.09080941609e-05 -0.164535183743 0
0.00209114028312 -0.174004537151 0
0.00204246130812 -0.174680697184 0
-0.000119070061771 -0.165191392683 0
-0.00171551450602 -0.17054848713 0
-0.000480444538963 -0.167725382624 0
-0.00228997076327 -0.174183297373 0
-0.00253017285958 -0.17629272745 0
0.00251707108888 -0.176300110028 0
0.000218238999159 -0.178657693923 0
0.000248130746607 -0.168686014739 0
0.000173560120061 -0.170244899382 0
-0.00255054316343 -0.173750309979 0
0.000519161751774 -0.167692113315 0
-0.00125737500126 -0.163293939645 0
-0.00237836520942 -0.174066867978 0
0.00077070160211 -0.169348040223 0
0.000765483831769 -0.179217360782 0
0.00249019786854 -0.165253093249 0
-0.000182470625959 -0.170256030969 0
-0.000738065749092 -0.176758866118 0
0.000101482362695 -0.163438033169 0
-0.000184310536897 -0.168800331584 0
-0.000145247996346 -0.166158300109 0
0.0023776344747 -0.166802507462 0
-0.00255266641938 -0.165255448218 0
-0.000746108840722 -0.169342474148 0
-0.00240020822829 -0.166803469048 0
-2.33019376925e-05 -0.162832906303 0
0.000143556015371 -0.166103517003 0
0.000132250468749 -0.161259071901 0
0.00308831398626 -0.176641911854 0
-0.00309891369325 -0.17663468755 0
0.00245934255253 -0.163812896119 0
0.00218209720527 -0.162686592491 0
-0.000248233630398 -0.17897172804 0
-0.00218987337563 -0.162686998028 0
-0.00247744796502 -0.163848175311 0
0.00211377079825 -0.168594916182 0
0.00153585925848 -0.170356535726 0
-3.2366900989e-05 -0.164709127507 0
-0.00213506510948 -0.168596162876 0
-0.00155140224656 -0.170364487209 0
0.00278207215778 -0.175712931835 0
0.00126728090162 -0.177130580823 0
-0.000175174082331 -0.168686667041 0
0.000746733678537 -0.160578039813 0
-0.00119170405268 -0.162262941173 0
0.00130773502687 -0.161029135244 0
0.000510506818044 -0.163686491025 0
0.00262352197756 -0.174953573757 0
0.00287849550379 -0.176380427229 0
-0.00289008387061 -0.176373427646 0
-0.00206427366899 -0.174618984971 0
0.00300379498001 -0.176125554189 0
-0.00301422622173 -0.176119825243 0
0.000309092167844 -0.174530366193 0
-0.00078007605009 -0.167745762929 0
0.000458045040439 -0.178956400441 0
-0.000416423599605 -0.161284371498 0
0.00074626852418 -0.170026084425 0
0.000177879740309 -0.173441975264 0
-0.000196866206636 -0.173446517231 0
-0.00276412015005 -0.175385144439 0
0.000790986326136 -0.168063391901 0
-0.0013417832808 -0.165480301006 0
1.28815003705e-05 -0.166123653615 0
0.00221891611093 -0.176344364102 0
-9.42010768353e-05 -0.164757575257 0
-0.000818030487233 -0.167987059523 0
0.00122426827562 -0.162366065302 0
-2.42865621373e-06 -0.164414931483 0
-0.00284820257513 -0.175085239362 0
-0.000854403318826 -0.171225343981 0
-0.000349897590594 -0.162479585622 0
-0.000294997362802 -0.171607487565 0
-0.000827282264753 -0.169592283367 0
0.00148880982657 -0.166798979768 0
-0.000172704298175 -0.1721539652 0
0.000154280383524 -0.172157803219 0
-0.00150678528173 -0.166800287808 0
0.000273972404821 -0.167964507657 0
0.00040947858885 -0.162114745428 0
0.00161401941925 -0.165630674881 0
0.00303723180649 -0.176193339003 0
-0.00304366535563 -0.176166686009 0
-0.00069553437997 -0.179280413308 0
-7.95178523341e-05 -0.166134299097 0
0.0028342213148 -0.175070855117 0
0.000198824679398 -0.162248428004 0
-0.00146704097965 -0.161249978579 0
-0.00244820894905 -0.176011958813 0
0.00243464944844 -0.176018865742 0
-0.00213955561561 -0.176416218316 0
0.00212540125222 -0.176423982252 0
-0.000754193344313 -0.161682697684 0
-0.0024588274573 -0.173652733941 0
0.00142045261762 -0.164519189253 0
0.00270995843307 -0.176499251863 0
0.000779583110487 -0.168063354625 0
-0.00103321090445 -0.164200299547 0
0.00275207441523 -0.175392874347 0
-0.00260403313641 -0.176645454494 0
0.00259116182499 -0.176653554705 0
0.000665039589916 -0.174182847552 0
0.00183292336692 -0.172857728083 0
0.000913726569192 -0.168243549337 0
-0.00226245278832 -0.175386707195 0
0.00224878993533 -0.17539238663 0
-0.00142507391559 -0.173201864819 0
-7.76131791755e-05 -0.165078285139 0
0.00137343739302 -0.173230564252 0
0.000698437518082 -0.167254845455 0
0.000592848732967 -0.161140276065 0
-0.00222840159014 -0.172522849939 0
-0.000923119445515 -0.168273617314 0
-0.000779305136202 -0.173090484366 0
0.000761605166361 -0.173094556297 0
0.00144250720467 -0.174139382891 0
-0.00142901838852 -0.17125485783 0
-0.000750408985774 -0.179370082045 0
-0.00164932637007 -0.175949987585 0
0.00163426939343 -0.175957348135 0
0.000839645230522 -0.161936470709 0
0.000869306474104 -0.171816270819 0
-0.000891304883473 -0.171820469509 0
-0.000341670418837 -0.166556458099 0
-9.25620600558e-05 -0.165226202702 0
-0.000556983716235 -0.178808100481 0
-0.000760553779946 -0.170785014426 0
-0.00096420974297 -0.172931765149 0
0.00240281659554 -0.173473450626 0
0.00045167082252 -0.172143628179 0
0.000747749498272 -0.170841799421 0
0.000332360031809 -0.166450888823 0
0.00308643266518 -0.176440741723 0
-0.00309646739566 -0.176434714818 0
-0.00119376624143 -0.169897243547 0
-0.00176830128538 -0.17477844004 0
0.00175124071548 -0.174776065742 0
0.00189092796804 -0.171760601335 0
-0.00130171041959 -0.174646550469 0
0.00127137578089 -0.174640906867 0
-0.0031915285813 -0.176767084284 0
0.00318211170113 -0.176773978261 0
-0.00124763433466 -0.168910155754 0