# vtk DataFile Version 2.0
Generated with Solid Solver
ASCII
DATASET UNSTRUCTURED_GRID
POINTS 999 float 
0.2 4.325 0.0
1.4 4.325 0.0
1.4 4.825 0.0
0.2 4.825 0.0
1.4 4.34523264049 0.0
1.4 4.36751203886 0.0
1.4 4.39204525371 0.0
1.4 4.4190602782 0.0
1.4 4.44880817466 0.0
1.4 4.48156541084 0.0
1.4 4.51763640748 0.0
1.4 4.5573564007 0.0
1.4 4.60109451608 0.0
1.4 4.64925723872 0.0
1.4 4.70229217343 0.0
1.4 4.76069218095 0.0
1.33333333333 4.825 0.0
1.26666666667 4.825 0.0
1.2 4.825 0.0
1.13333333333 4.825 0.0
1.06666666667 4.825 0.0
1.0 4.825 0.0
0.933333333334 4.825 0.0
0.866666666668 4.825 0.0
0.800000000001 4.825 0.0
0.733333333334 4.825 0.0
0.666666666668 4.825 0.0
0.600000000001 4.825 0.0
0.533333333334 4.825 0.0
0.466666666667 4.825 0.0
0.4 4.825 0.0
0.333333333334 4.825 0.0
0.266666666667 4.825 0.0
0.2 4.76069218095 0.0
0.2 4.70229217343 0.0
0.2 4.64925723872 0.0
0.2 4.60109451608 0.0
0.2 4.5573564007 0.0
0.2 4.51763640748 0.0
0.2 4.48156541084 0.0
0.2 4.44880817466 0.0
0.2 4.4190602782 0.0
0.2 4.39204525371 0.0
0.2 4.36751203886 0.0
0.2 4.34523264049 0.0
0.212131543907 4.30926329506 0.0
0.224675715302 4.29385348652 0.0
0.23762369102 4.27878141198 0.0
0.250966423879 4.26405760374 0.0
0.264694484585 4.24969246611 0.0
0.278798324214 4.23569599189 0.0
0.293267939266 4.22207810803 0.0
0.308093289028 4.20884826442 0.0
0.323263842145 4.19601585877 0.0
0.338769084145 4.18358978512 0.0
0.354597997314 4.17157887342 0.0
0.37073960121 4.15999145532 0.0
0.387182441982 4.14883575334 0.0
0.403915091795 4.13811952025 0.0
0.420925712897 4.12785033813 0.0
0.438202430937 4.11803537461 0.0
0.455733079095 4.10868154223 0.0
0.473505374364 4.09979539439 0.0
0.491506842655 4.09138316882 0.0
0.509724826085 4.0834507802 0.0
0.528146580414 4.07600377808 0.0
0.546759103951 4.06904741762 0.0
0.56554943677 4.06258654322 0.0
0.584504260001 4.05662573401 0.0
0.60361041518 4.0511691282 0.0
0.622854334779 4.04622060039 0.0
0.642222678753 4.04178358113 0.0
0.661701681839 4.03786122392 0.0
0.681277836375 4.03445624851 0.0
0.700937245817 4.03157107217 0.0
0.720666255912 4.02920769845 0.0
0.740450894784 4.02736780161 0.0
0.76027736978 4.02605266363 0.0
0.780131702711 4.02526321235 0.0
0.799999999998 4.025 0.0
0.819868297285 4.02526321235 0.0
0.839722630216 4.02605266363 0.0
0.859549105212 4.02736780161 0.0
0.879333744085 4.02920769845 0.0
0.89906275418 4.03157107217 0.0
0.918722163621 4.03445624851 0.0
0.938298318157 4.03786122392 0.0
0.957777321244 4.04178358113 0.0
0.977145665218 4.04622060039 0.0
0.996389584817 4.0511691282 0.0
1.01549574 4.05662573401 0.0
1.03445056323 4.06258654322 0.0
1.05324089605 4.06904741762 0.0
1.07185341958 4.07600377808 0.0
1.09027517391 4.0834507802 0.0
1.10849315734 4.09138316882 0.0
1.12649462563 4.09979539439 0.0
1.1442669209 4.10868154222 0.0
1.16179756906 4.1180353746 0.0
1.1790742871 4.12785033813 0.0
1.1960849082 4.13811952024 0.0
1.21281755802 4.14883575334 0.0
1.22926039879 4.15999145532 0.0
1.24540200269 4.17157887342 0.0
1.26123091585 4.18358978512 0.0
1.27673615785 4.19601585877 0.0
1.29190671097 4.20884826442 0.0
1.30673206073 4.22207810803 0.0
1.32120167579 4.23569599189 0.0
1.33530551541 4.24969246611 0.0
1.34903357612 4.26405760374 0.0
1.36237630898 4.27878141198 0.0
1.3753242847 4.29385348652 0.0
1.38786845609 4.30926329506 0.0
1.05632730172 4.46025283906 0.0
0.549964048968 4.4630053958 0.0
0.806135520676 4.31186690218 0.0
0.603895783049 4.26079310371 0.0
1.22984770884 4.38318704125 0.0
0.3703382852 4.38423552752 0.0
0.995322815839 4.25565031136 0.0
0.728315816804 4.1765935937 0.0
0.872128173905 4.17288724072 0.0
1.14059401893 4.27298468684 0.0
0.461553191009 4.27181671009 0.0
0.784706775856 4.56821390922 0.0
0.398287125272 4.57945970538 0.0
1.20625306554 4.58334743514 0.0
0.624100842742 4.1589824436 0.0
0.5257453845 4.18811776279 0.0
0.978502430793 4.15488737058 0.0
1.07419209812 4.18825154482 0.0
0.364313698077 4.28677035763 0.0
1.23509538257 4.28681716733 0.0
0.68124123937 4.39284548972 0.0
1.31679378691 4.35012066749 0.0
0.283206213094 4.35012066749 0.0
0.791498533126 4.11467141721 0.0
0.931481076052 4.3801344917 0.0
0.966719065571 4.62778042839 0.0
0.684451667517 4.11068036752 0.0
0.618335406951 4.62686910993 0.0
0.450982331762 4.19686171732 0.0
0.915674266355 4.10995633851 0.0
1.14900051594 4.19689012964 0.0
1.30193709687 4.4481448133 0.0
0.298574667609 4.44816296922 0.0
1.05734787542 4.34990107617 0.0
0.539273225177 4.35252599628 0.0
0.709896798149 4.27721026287 0.0
0.895708916005 4.26924194389 0.0
0.813273511364 4.43835766235 0.0
0.559289631452 4.13230879113 0.0
1.04001407307 4.13281539633 0.0
0.801161810585 4.23146244955 0.0
0.665113819616 4.52056650186 0.0
0.852577362173 4.09111846388 0.0
0.390256727869 4.2242806298 0.0
1.20974450479 4.22428104599 0.0
0.921542541183 4.52778058719 0.0
1.14030889032 4.36437344809 0.0
1.15600477272 4.46808538305 0.0
0.435243219029 4.4750581257 0.0
0.462045157798 4.36654654286 0.0
0.735806812738 4.08472269746 0.0
1.30082934537 4.29793772796 0.0
0.299170654625 4.29793772796 0.0
0.533651712118 4.26265983853 0.0
0.666130919144 4.21652131559 0.0
1.0676097303 4.26179469382 0.0
1.08054433577 4.58530946155 0.0
0.506773767255 4.56568295079 0.0
0.626745312844 4.10124420826 0.0
0.933845304214 4.2106954732 0.0
0.293717639664 4.55175000185 0.0
0.312505022079 4.66426411351 0.0
1.3058164124 4.55154930624 0.0
1.29054387065 4.66302765963 0.0
0.973467966326 4.09941619478 0.0
0.487935413164 4.15087084015 0.0
0.461549079751 4.68836834982 0.0
1.11203248746 4.15093503889 0.0
1.14453515393 4.70617370303 0.0
0.840217564202 4.68891146633 0.0
0.585347033288 4.20539048534 0.0
0.619177396637 4.34227576306 0.0
0.331644410315 4.24962190462 0.0
1.26835558968 4.24962190462 0.0
1.01536156978 4.19987473052 0.0
0.809331033562 4.07065709122 0.0
0.982321540791 4.33437358971 0.0
0.725600576914 4.66999651799 0.0
0.812291456186 4.16642942492 0.0
0.335887692543 4.33918235669 0.0
1.26344844681 4.34017131907 0.0
1.23449730504 4.49457441524 0.0
1.34334172095 4.40539551957 0.0
0.256658279045 4.40539551957 0.0
0.741646926828 4.34287908527 0.0
0.674799084703 4.16673768522 0.0
1.18647435526 4.30955189749 0.0
0.360563250283 4.49596479569 0.0
0.873716483853 4.33845499203 0.0
0.418704489949 4.31146264283 0.0
0.492670911224 4.22931614809 0.0
0.403480880356 4.19046776931 0.0
1.19651541215 4.1904686246 0.0
0.728649253738 4.46214546491 0.0
1.00883674467 4.40174664879 0.0
1.11035034557 4.23161841276 0.0
0.261968539765 4.3130079512 0.0
1.33803146023 4.3130079512 0.0
0.74649980488 4.1318354354 0.0
0.927597725248 4.1577597079 0.0
0.892956618256 4.07619338913 0.0
0.659794281787 4.07951387326 0.0
0.587663534405 4.09486537006 0.0
0.942353209926 4.07935300973 0.0
1.01493747319 4.09476013719 0.0
0.613130017774 4.41369803882 0.0
0.449373501074 4.15377191978 0.0
0.514840228377 4.12225850006 0.0
0.497057592 4.41333092106 0.0
1.15061382426 4.15379293084 0.0
1.08514419473 4.12228328152 0.0
0.745617635771 4.23098957592 0.0
0.87523452213 4.59853036549 0.0
0.855262884783 4.2258970831 0.0
1.01126200032 4.53280064162 0.0
1.09391916408 4.40632408872 0.0
1.04436265455 4.71482000827 0.0
0.314320181089 4.38773968607 0.0
1.28649331902 4.38743720145 0.0
0.771211579291 4.06316862024 0.0
0.432259099658 4.24006002157 0.0
0.698583889427 4.07144353526 0.0
1.16802128371 4.238862881 0.0
1.09587629216 4.3086676659 0.0
1.35920470355 4.35666960471 0.0
0.240795296449 4.35666960471 0.0
0.504003580654 4.30815758118 0.0
0.579942709371 4.5342075073 0.0
0.875915224914 4.12815792528 0.0
0.426503136644 4.40717733008 0.0
0.57541416445 4.30365301522 0.0
0.683877978289 4.33161848113 0.0
0.888061695889 4.44633509246 0.0
0.26012287522 4.49859249103 0.0
1.33987712478 4.49859249103 0.0
0.801393572636 4.37060096582 0.0
0.558460082533 4.72496728209 0.0
1.1741923373 4.41132830101 0.0
0.83220012886 4.12779415912 0.0
1.02815069622 4.30053276509 0.0
0.948308583502 4.2880204454 0.0
0.846588933095 4.50834596945 0.0
0.343666800815 4.43485820652 0.0
1.25632767671 4.43480360053 0.0
0.97849585731 4.47031535602 0.0
1.10170977548 4.51507265998 0.0
0.662193131828 4.26809398492 0.0
0.400503668388 4.26881657105 0.0
1.20117145985 4.26130427377 0.0
0.350957892513 4.21796558019 0.0
1.24904210749 4.21796558019 0.0
0.771964652188 4.18905379403 0.0
0.932165148285 4.72736281402 0.0
0.373672364094 4.73321357765 0.0
0.760245937722 4.28409350779 0.0
0.848718469252 4.05767763075 0.0
1.23385612561 4.7358294747 0.0
0.846421485813 4.28065918421 0.0
0.651597058631 4.13043284014 0.0
0.650489852552 4.72138045504 0.0
0.58457834847 4.16375088261 0.0
0.48701309933 4.18859927013 0.0
0.708495738406 4.58856947756 0.0
1.11203398596 4.18878062515 0.0
0.54865558244 4.10250047869 0.0
1.05126102377 4.10234629471 0.0
0.300013757486 4.26259646442 0.0
1.29998624251 4.26259646442 0.0
0.9465032388 4.12718070354 0.0
0.708587583337 4.14146095907 0.0
0.973348904468 4.19537871864 0.0
0.628721855632 4.19538356945 0.0
0.380175010018 4.34021880077 0.0
0.662092932411 4.45899041267 0.0
1.05133526787 4.22221992007 0.0
0.528087045766 4.64327882187 0.0
1.22233124543 4.33521693908 0.0
1.19001193434 4.36273586668 0.0
0.853024099244 4.39544003492 0.0
0.542800296246 4.22324366905 0.0
0.247706318737 4.45239119247 0.0
1.35229368126 4.45239119247 0.0
0.599153768578 4.12953797005 0.0
1.01616570494 4.16227683178 0.0
0.744705786938 4.40569544575 0.0
1.31929001115 4.73702550052 0.0
0.777615355331 4.15113602511 0.0
1.33132411895 4.60631378639 0.0
0.265621610877 4.60975488866 0.0
0.532023338888 4.15374454388 0.0
1.0697792195 4.15241429251 0.0
0.286371037106 4.73010312914 0.0
0.497725885905 4.50153668256 0.0
0.46053455822 4.31587947599 0.0
0.433799237968 4.54629400991 0.0
0.388624781906 4.65094200004 0.0
0.554823673752 4.40451940232 0.0
1.1421595646 4.31818301431 0.0
1.14760043966 4.61655103139 0.0
1.21258698805 4.65320200685 0.0
1.16279096046 4.53292621409 0.0
0.995762647814 4.12508772517 0.0
0.456229040627 4.61456685246 0.0
0.707289391156 4.21520271873 0.0
0.763036833302 4.74285445535 0.0
0.78386198569 4.49787013126 0.0
[...]
POINT_DATA 999
VECTORS Displacement float
-0.0018110642051 -0.141868789978 0
0.00179892176441 -0.141877797745 0
0.0 -0.144 0
0.0 -0.144 0
0.00192435110757 -0.141867667503 0
0.00204606237723 -0.141853159828 0
0.0021551308343 -0.141835033191 0
0.00224675156347 -0.141823946562 0
0.00229976091216 -0.141825808151 0
0.00232966826259 -0.141846839746 0
0.00230116323396 -0.141892462564 0
0.0022089352839 -0.14196899146 0
0.0020432124041 -0.142101848376 0
0.00177302345679 -0.14230719445 0
0.0013859367304 -0.142625782768 0
0.000833522821243 -0.143121782759 0
0.0 -0.144 0
0.0 -0.144 0
0.0 -0.144 0
0.0 -0.144 0
0.0 -0.144 0
0.0 -0.144 0
0.0 -0.144 0
0.0 -0.144 0
0.0 -0.144 0
0.0 -0.144 0
0.0 -0.144 0
0.0 -0.144 0
0.0 -0.144 0
0.0 -0.144 0
0.0 -0.144 0
0.0 -0.144 0
0.0 -0.144 0
-0.000829225427405 -0.143124995442 0
-0.00138229837269 -0.142628181208 0
-0.00178691149266 -0.14230616401 0
-0.00204941469785 -0.142096363928 0
-0.00221427696823 -0.141961510427 0
-0.00230853784309 -0.141884033486 0
-0.00233822603246 -0.141838647776 0
-0.00230901378387 -0.141817526971 0
-0.00225663086568 -0.141815484053 0
-0.00216563122034 -0.141826357654 0
-0.00205717332984 -0.141844309429 0
-0.0019360231782 -0.141858707144 0
-0.00170818081319 -0.141802939101 0
-0.00159513698544 -0.141730433389 0
-0.00147273375322 -0.141646354194 0
-0.00133876878131 -0.141550697406 0
-0.0011942139585 -0.141439559669 0
-0.00104291105621 -0.14131030943 0
-0.000883365439981 -0.141164986735 0
-0.000709740192161 -0.141001753885 0
-0.000525237756664 -0.140808827639 0
-0.000337808843891 -0.140600929885 0
-0.000139331726585 -0.140364584039 0
7.51060385784e-05 -0.140099849187 0
0.000294340383744 -0.139797720698 0
0.000526889944743 -0.139460978876 0
0.000770414799816 -0.139083472632 0
0.00103666898102 -0.138652420891 0
0.00130088384565 -0.138180879915 0
0.00166151920717 -0.137464765983 0
0.00199287591663 -0.136577750307 0
0.00223312045531 -0.135706579484 0
0.0023980711951 -0.134873475595 0
0.00248887046435 -0.134065409171 0
0.00252492732295 -0.133313649368 0
0.00250274644095 -0.132596914363 0
0.00243576161892 -0.131938926251 0
0.00231502531196 -0.131328215255 0
0.00216214150191 -0.130779111083 0
0.00196904082913 -0.130287375543 0
0.00175476940268 -0.129864381556 0
0.00150459710118 -0.129494160655 0
0.00123699040635 -0.129194354112 0
0.00094186343545 -0.128951903781 0
0.000639710931816 -0.128774119284 0
0.000324595077659 -0.128660189374 0
-2.56984414624e-05 -0.128603195355 0
-0.000356096398326 -0.128665032123 0
-0.000672673302375 -0.128778200878 0
-0.000974914050523 -0.128950963522 0
-0.00126176822042 -0.129192448093 0
-0.00152986735366 -0.129496398138 0
-0.00178011599579 -0.129865836466 0
-0.00200387670167 -0.130300290807 0
-0.00218569395898 -0.130783794472 0
-0.00233687463319 -0.131331285672 0
-0.00245715348959 -0.131940867751 0
-0.00252485184985 -0.132598702083 0
-0.00254715865513 -0.133315117303 0
-0.00251205361663 -0.134069407941 0
-0.00242006380994 -0.134877065003 0
-0.00225464219725 -0.135710011197 0
-0.00201433465525 -0.136581219089 0
-0.00168145487603 -0.137471599714 0
-0.00131785569889 -0.138192020885 0
-0.00105432745746 -0.138660346313 0
-0.000787950452604 -0.139090780066 0
-0.000544153807165 -0.139468189297 0
-0.000311257793949 -0.139804978437 0
-9.16524682939e-05 -0.140107243628 0
0.000123203858347 -0.140372172028 0
0.000322141231851 -0.140608703809 0
0.000510045136449 -0.140816762726 0
0.000694968817981 -0.141009792193 0
0.000868967648662 -0.14117308226 0
0.00102884786812 -0.141318477937 0
0.00118049148211 -0.141447814203 0
0.00132535131731 -0.141559035916 0
0.00145961228771 -0.141654809434 0
0.00158232113803 -0.141739039455 0
0.00169568990672 -0.141811727467 0
0.00163893108876 -0.13957591762 0
-0.00161236218271 -0.139554563128 0
3.33246875613e-05 -0.135045552253 0
-0.000998150119403 -0.1356717657 0
0.00206116028642 -0.140659525862 0
-0.00207200737734 -0.140656833263 0
0.000953514560996 -0.13556528555 0
-8.07047989742e-05 -0.132201917254 0
4.20603203379e-05 -0.1321263097 0
0.00143224084669 -0.138699067567 0
-0.00143514642701 -0.13864079532 0
-9.41158693205e-05 -0.14018668579 0
-0.00180379496102 -0.141878866858 0
0.0017894019734 -0.141935009754 0
3.17686738592e-05 -0.133352657969 0
-0.000496891140661 -0.136325725933 0
-0.000111821540934 -0.1333378596 0
0.000484610293425 -0.136325989021 0
-0.0015558029468 -0.140343720959 0
0.00154250142221 -0.140341597782 0
-0.000879496402715 -0.137249212979 0
0.00195767919741 -0.141338852078 0
-0.00196890229333 -0.141331358172 0
2.84086765745e-05 -0.130492895208 0
0.00095073081392 -0.13710362845 0
0.000820384551771 -0.141455440595 0
0.000561462788867 -0.131277649434 0
-0.000895348361491 -0.141488360628 0
-0.000615104125876 -0.138437130081 0
-0.000593201988537 -0.131265672535 0
0.00060130881889 -0.138443667843 0
0.00224789585933 -0.14150403739 0
-0.00225578530885 -0.141495842358 0
0.00159242245133 -0.138079334684 0
-0.001621699639 -0.138160312304 0
-0.000535542978528 -0.13462637021 0
0.000529332208486 -0.134503374453 0
9.7635901903e-05 -0.137751583424 0
0.000541975054997 -0.134543390355 0
-0.000549374303915 -0.134531851558 0
-3.7941235354e-06 -0.133191416326 0
-0.000898660449002 -0.139653399363 0
-0.000394138659447 -0.130164041688 0
-0.000934121009761 -0.139797784963 0
0.000919170403575 -0.139805509675 0
0.000799587769827 -0.139717312475 0
0.001877928963 -0.139447424129 0
0.00198356150807 -0.140584566075 0
-0.00201267436947 -0.140717836255 0
-0.00188666723835 -0.139427286374 0
0.000500865559854 -0.130119896572 0
0.00161751472521 -0.141133196308 0
-0.00163017409536 -0.14112552392 0
-0.00125379029058 -0.137067582888 0
-0.000467598610477 -0.133797640397 0
0.00123551773887 -0.137085720082 0
0.00142383593508 -0.141354656648 0
-0.00154600954008 -0.141184739206 0
0.0010093546519 -0.132186829724 0
0.000409658903735 -0.13367562595 0
-0.00211779006796 -0.142001287762 0
-0.00146941235313 -0.142737172352 0
0.00211356834485 -0.142005302972 0
0.00148385048999 -0.142730904587 0
-0.00106528929673 -0.132162887573 0
0.000146271373692 -0.137136882314 0
-0.00105288660046 -0.142704487229 0
-0.00016261413044 -0.137141883566 0
0.000948943985183 -0.142899821817 0
0.000159168596183 -0.142152421509 0
-0.000611777159652 -0.13506685358 0
-0.00122181001774 -0.136906893235 0
-0.00119451933475 -0.14071562941 0
0.0011806279916 -0.140723299228 0
0.00053406815438 -0.134989897156 0
-0.000105842182037 -0.129535886012 0
0.00119917748652 -0.136791230382 0
-0.000323207745023 -0.141897363538 0
-8.49828119418e-06 -0.131683026656 0
-0.00190855795503 -0.140832246231 0
0.00190184996384 -0.140835018652 0
0.0021296358744 -0.141379800052 0
0.00219349607781 -0.14159708725 0
-0.00220344056632 -0.141589825804 0
-0.000424793962381 -0.135863158207 0
-4.38651938869e-05 -0.132604903648 0
0.00170487732312 -0.139720826468 0
-0.00214850102711 -0.141412217358 0
0.000518641932047 -0.135847019808 0
-0.00172611220961 -0.139648043303 0
-0.0010385162712 -0.13762020952 0
-0.000466003440036 -0.139494742876 0
0.000450082288243 -0.139501393119 0
-0.000523286536973 -0.138343635902 0
0.00142766218739 -0.138234557258 0
0.00104842576452 -0.137719667948 0
-0.00173722500368 -0.141461377717 0
0.00172480111193 -0.141469347349 0
0.000143311194699 -0.131055615534 0
-6.28693534923e-05 -0.132450359624 0
-0.000856680630041 -0.130257842256 0
0.00119861058777 -0.131075100015 0
0.0013755710849 -0.133087154224 0
-0.0012398209144 -0.131121825686 0
-0.00141249531477 -0.133165899018 0
-0.00131476112399 -0.138208135951 0
0.000146157259825 -0.138358261002 0
0.000840630738734 -0.135907650363 0
-0.00185301067336 -0.139469704486 0
-0.000163256694805 -0.138365113191 0
-0.000859166285647 -0.135911647447 0
-0.000234436902694 -0.133333805293 0
0.000426158205594 -0.140767447621 0
0.000209053464454 -0.133222648645 0
0.00128486336858 -0.140267856867 0
0.00180661900675 -0.139285167092 0
0.000711527714661 -0.142797134453 0
-0.00212293194209 -0.141178749887 0
0.00211244424028 -0.141190697871 0
0.000293945704838 -0.129436596244 0
-0.00114736802159 -0.139043270166 0
0.000973307258644 -0.13027451158 0
0.00111880133789 -0.139049248366 0
0.00157672068952 -0.138188530809 0
0.00199517919593 -0.141632328959 0
-0.00200647794031 -0.141624267779 0
-0.00158697016496 -0.138182355701 0
-0.00132742217484 -0.140341895122 0
-0.000252984344327 -0.131158842054 0
-0.00203881656214 -0.140213504866 0
-0.00132867346562 -0.136881395855 0
-0.000807608902883 -0.136008568232 0
0.000647884621473 -0.138102829403 0
-0.00228298710681 -0.141817518165 0
0.00227400721084 -0.141824409057 0
5.73005408966e-06 -0.136336728615 0
-0.000649623935964 -0.142904983796 0
0.00203219759428 -0.140262154765 0
-0.000116698071789 -0.130846214183 0
0.00131848607773 -0.136893310944 0
0.000877643001401 -0.135473213177 0
0.00032460323177 -0.139144873152 0
-0.00219600669259 -0.141152719007 0
0.00218745683758 -0.141157723636 0
0.00121982276607 -0.139079509836 0
0.00172157515114 -0.140643539434 0
-0.000761076498657 -0.134932442372 0
-0.00141341799544 -0.139739518526 0
0.00132990568115 -0.139749405657 0
-0.00082995272864 -0.140429050791 0
0.00081528052029 -0.140436615435 0
-6.04304276149e-05 -0.132242568035 0
0.000380910517438 -0.142784059417 0
-0.000834042053132 -0.143259432824 0
-0.000248993197124 -0.134487349212 0
-0.000577109683083 -0.129446370953 0
0.000814350723566 -0.143287789879 0
0.000269853620865 -0.134435871232 0
0.000411108778763 -0.132233916048 0
-0.000448750095563 -0.142727786894 0
-5.98393501728e-05 -0.134360952515 0
-0.000520915522652 -0.137431866983 0
-0.000529065447315 -0.140641169736 0
0.000512105319175 -0.137412314074 0
0.00135842757375 -0.134441618952 0
-0.00138193239956 -0.134440246283 0
-0.00132125583286 -0.141095132616 0
0.00130778205411 -0.141102981701 0
-0.000476582070404 -0.132141202159 0
0.000165586019895 -0.131616749422 0
0.000384614945335 -0.134022969298 0
-0.00039645204404 -0.133979913231 0
-0.00189735185727 -0.140330792312 0
-0.000983786931345 -0.138606274834 0
0.000859653562843 -0.136181570278 0
-0.0011511088599 -0.142013036549 0
0.00186311673985 -0.140344289702 0
0.00195287969637 -0.140087951325 0
0.000395321858458 -0.136954794009 0
-0.00090051081765 -0.136338902668 0
-0.00229977502723 -0.141717186682 0
0.0022906644728 -0.141724085902 0
0.000541668549544 -0.133381274458 0
1.80581099275e-05 -0.13435513814 0
-0.000420793659597 -0.137171111585 0
0.00088402045881 -0.143274971517 0
1.34067362568e-05 -0.131345546776 0
0.00191700724714 -0.142316312741 0
-0.00190894906293 -0.142331329206 0
8.92415112057e-05 -0.13570316596 0
-0.000132626232176 -0.135748395781 0
-0.000936392428693 -0.143228841552 0
-0.00176290643601 -0.140486700568 0
-0.00170602312976 -0.139005227521 0
-0.00184713945319 -0.141401381427 0
-0.00143119477591 -0.142534422594 0
-0.00161714983311 -0.138684930097 0
0.00171029356367 -0.139074193444 0
0.00148947881069 -0.142009902611 0
0.00141634183219 -0.142557912182 0
0.00187429186733 -0.141253857496 0
-0.000637442803009 -0.133168277651 0
-0.00149104935399 -0.141972258413 0
-0.000320963720304 -0.133273390991 0
-9.82647637546e-05 -0.1429297878 0
-0.000115494161379 -0.138915462176 0
0.000855284371708 -0.136127252973 0
1.53970126072e-05 -0.139106897958 0
0.000277771673697 -0.133167938377 0
-3.20868261979e-05 -0.139113907683 0
0.00221185677596 -0.14165988458 0
0.000726854411292 -0.129647885957 0
-0.00152255108996 -0.140789585978 0
0.00150953500948 -0.140796995429 0
-0.000512357191782 -0.140064664282 0
0.000496760697102 -0.140071979735 0
-0.00129605512547 -0.139277177896 0
-0.00198533600787 -0.140104552939 0
0.000221502925179 -0.130112431421 0
-0.000567371400645 -0.139738726 0
-0.00124196363492 -0.140256857828 0
0.00122831496403 -0.140262832978 0
-0.00221681575507 -0.14163019271 0
0.00211809216938 -0.140890347097 0
0.000711151171821 -0.134698662675 0
-0.00151545809126 -0.14136858117 0
0.00150243891899 -0.141376601772 0
0.00104849060023 -0.142274579353 0
-0.00211770577331 -0.14087593569 0
-0.00185869040337 -0.141650125414 0
0.00184672815852 -0.141658426458 0
0.00155109413141 -0.131903882577 0
8.43144907498e-05 -0.132494232796 0
0.00181935817805 -0.142258056945 0
-0.00183000817588 -0.142253111116 0
-0.00133822549639 -0.137862550016 0
0.000453425398154 -0.130829336904 0
8.12546946576e-06 -0.133916738541 0
-0.000151468327511 -0.130174350366 0
0.00175448682728 -0.138781394791 0
0.00133446151005 -0.137900396754 0
-0.00104765875073 -0.135981298927 0
-0.00125406568396 -0.130324511521 0
-0.0015368820706 -0.131932714022 0
0.00184861657453 -0.140136343354 0
-0.00187503354289 -0.141126543263 0
0.00186368274017 -0.141133249641 0
0.000860530043181 -0.140537158821 0
-0.00176916084312 -0.138794966577 0
-0.00106081191876 -0.136071375684 0
0.000235430038937 -0.135252632102 0
-0.000947402159445 -0.140525187242 0
-9.12715556207e-05 -0.141491538328 0
0.000631739470739 -0.13740273615 0
-0.000648576212591 -0.137408959916 0
-0.00106966526097 -0.138379864722 0
0.0010080498878 -0.138381582695 0
-0.00220746856333 -0.141988177021 0
0.00220146179212 -0.141993828398 0
-0.000776166442557 -0.134907362188 0
0.00107049525204 -0.136193266035 0
-0.000356597853992 -0.135433176545 0
0.00113111224019 -0.14129344163 0
-0.000852135377218 -0.129687625304 0
0.00100081770015 -0.138201314653 0
0.0021198896203 -0.141698804559 0
-0.00213051918598 -0.141690764881 0
-0.00071207371306 -0.139096656395 0
-0.000514533994971 -0.130633217019 0
0.00069678851961 -0.139102838227 0
-0.000533188211332 -0.134087998229 0
0.00047133968919 -0.141807562348 0
0.000546918796526 -0.143333533698 0
0.00163359252284 -0.13868959592 0
-0.00146243605064 -0.13776131442 0
0.00212067809073 -0.141397646871 0
-0.00213083043985 -0.141390790922 0
0.00201931094232 -0.141817755188 0
-0.00203347572533 -0.141793413127 0
-0.000238178427058 -0.13171685466 0
0.00152526079679 -0.139317304 0
0.00138730769135 -0.13040313961 0
6.0846950413e-05 -0.129099115867 0
-3.3767977606e-05 -0.131582579925 0
-0.0019698790834 -0.14013273084 0
-0.00152535247766 -0.139404802077 0
-0.000918721465238 -0.140751856014 0
0.000904307863894 -0.140759627876 0
0.000241412472514 -0.135930255903 0
0.000474241768356 -0.133904183766 0
-0.000337802405674 -0.12924407024 0
0.00147878710366 -0.142749409488 0
-0.00176579708814 -0.140659116411 0
0.00174467980644 -0.140667370893 0
0.00136909093416 -0.137447969245 0
-0.00160067664883 -0.142639459115 0
-0.000515899784075 -0.143374369117 0
0.00193833032615 -0.139748307511 0
-0.00124119923076 -0.141392382082 0
-0.000129412170145 -0.133197929997 0
0.00121063776454 -0.137374194346 0
0.00142921734138 -0.137455958327 0
0.000661723383501 -0.134819343717 0
0.00111831578512 -0.136154090541 0
-0.00113413970033 -0.137375782451 0
-0.00201399951572 -0.141260227319 0
0.000819379246917 -0.131697448563 0
0.000495621002556 -0.132848959525 0
-0.00200736478101 -0.141108312007 0
0.00199592249475 -0.141123127834 0
-0.00108977318859 -0.14098840083 0
0.00107570280213 -0.140996308092 0
0.000102306348861 -0.132554499695 0
0.00161428099522 -0.140021753432 0
0.0015459414216 -0.14028260727 0
0.000118623559322 -0.133215728249 0
-0.00145483046939 -0.137485674676 0
-0.000443401580699 -0.135011725956 0
-0.00175094777463 -0.140124150214 0
-0.00188746274697 -0.141501593048 0
0.00187563975659 -0.141509525647 0
0.00016373734457 -0.143047812506 0
-0.000170268020681 -0.136526414347 0
-0.000183924630216 -0.137774454948 0
-0.00194242593316 -0.139733108896 0
0.000481331198616 -0.1349948633 0
-0.000874894579526 -0.131691729555 0
-0.00180706111165 -0.139891449548 0
0.000848910162093 -0.13682467877 0
0.000557687809298 -0.143459078254 0
0.00178773662797 -0.133720268516 0
0.000172599627777 -0.137783714066 0
-0.000556616465222 -0.141699044402 0
1.83247546269e-05 -0.131577060551 0
0.000210430652556 -0.136609983126 0
-0.000150155418484 -0.133757300932 0
0.00154291385466 -0.135173844064 0
-0.00184588717534 -0.133729424988 0
-0.000835679142092 -0.136828903759 0
-0.00156373762197 -0.135176332364 0
-1.6109554657e-05 -0.131059311096 0
0.000151601591331 -0.133715861631 0
9.93650853944e-05 -0.129768427144 0
0.00225110620108 -0.141720719205 0
-0.00226076637893 -0.141713140488 0
0.00188491154735 -0.132357915 0
0.0017255771416 -0.13126966256 0
-0.000186014944234 -0.143272285431 0
-0.00173467797063 -0.131268484677 0
-0.00189973446276 -0.132390437066 0
0.00113943273651 -0.136818327681 0
0.000696280330914 -0.138124877251 0
-0.000169643726478 -0.132689382639 0
-0.00115766074674 -0.136823008089 0
-0.000713585944695 -0.138133052318 0
0.00205266838124 -0.141072907508 0
0.000945064555569 -0.141984864894 0
-0.000153401019044 -0.135727829307 0
0.000616885051064 -0.129232699191 0
-0.000895417905965 -0.130738823238 0
0.00107333811813 -0.129665609528 0
0.000255707648464 -0.131912410809 0
0.0019619392851 -0.140619144453 0
0.00211494881442 -0.141555675043 0
-0.00212547935454 -0.141548165576 0
-0.0015639248213 -0.140239150928 0
0.00220096411103 -0.141383413375 0
-0.00221041535839 -0.141377011017 0
0.00023769802162 -0.140080104195 0
-0.000839000985555 -0.135337575066 0
0.000341031489997 -0.143265149198 0
-0.000325414074492 -0.129800944258 0
0.000624873414303 -0.136778710314 0
-0.000116790971009 -0.139748955613 0
0.000100375400425 -0.139756137367 0
-0.00205295444753 -0.140898867822 0
0.00072633902473 -0.135334269075 0
-0.000781614100275 -0.133766271408 0
-0.000259574782105 -0.134089924894 0
0.00164190106512 -0.141471869337 0
-0.000152958557912 -0.132656004134 0
-0.000754933750582 -0.135283135879 0
0.000911728927621 -0.130839025064 0
5.1871448628e-06 -0.132351344916 0
-0.00211676658377 -0.140672599763 0
-0.000693001510235 -0.1376759694 0
-0.000228656868892 -0.130800293464 0
-0.000237492052805 -0.137933930692 0
-0.000703456679359 -0.136462399432 0
0.000803722049119 -0.135042049786 0
-0.000345773297809 -0.138973859225 0
0.000330051777773 -0.138980671316 0
-0.000820735950954 -0.135044086912 0
0.000248640280827 -0.135176852807 0
0.000282550002919 -0.130499111117 0
0.000992539132646 -0.133955088249 0
0.00222011114574 -0.14141839428 0
-0.00222699240593 -0.141398840127 0
-0.000507267349121 -0.143502158216 0
0.000209012301206 -0.134114191577 0
0.0021052151334 -0.140664993548 0
0.000128591698288 -0.130588929059 0
-0.00120036849142 -0.129875425151 0
-0.00183464006151 -0.141321223702 0
0.0018224801936 -0.141328843446 0
-0.00163001372686 -0.141584985508 0
0.00161728280148 -0.141593274667 0
-0.000575338164784 -0.130168352994 0
-0.00188209664859 -0.139728829063 0
0.000917626156401 -0.132870085993 0
0.0019840848671 -0.141606602083 0
0.000848128840108 -0.13564632027 0
-0.000626166735819 -0.132499434447 0
0.00204225086466 -0.140906944947 0
-0.0019348537621 -0.141728905717 0
0.00192320393201 -0.141737379269 0
0.000512985079162 -0.139835419668 0
0.00142932018675 -0.138968228999 0
0.000295206383354 -0.136279065232 0
-0.00171462347386 -0.14091965479 0
0.00170229949689 -0.140926544021 0
-0.00117651370945 -0.139540576822 0
-9.93341397841e-05 -0.132893742033 0
0.00113727161452 -0.139565032187 0
0.000693352892001 -0.134747818116 0
0.000467721126046 -0.129693357916 0
-0.00174619391994 -0.138826042103 0
-0.000305378430661 -0.136306237663 0
-0.000741351977889 -0.139508758224 0
0.000725820064912 -0.139514908424 0
0.00110794351604 -0.139845282731 0
-0.00124148250004 -0.138179440742 0
-0.000539671396595 -0.143565459069 0
-0.00130828695684 -0.141289537198 0
0.0012947778425 -0.141297598649 0
0.000624876981758 -0.130401016275 0
0.000325669296521 -0.138853800551 0
-0.00034304026392 -0.138860895602 0
-0.000344505418328 -0.134096464262 0
-0.000256884385983 -0.133168758551 0
-0.000414066806694 -0.143161539625 0
-0.000795992488891 -0.137978763346 0
-0.000756424241961 -0.138936154633 0
0.00184577875998 -0.139609816377 0
0.000360028503302 -0.138335174062 0
0.000782631050221 -0.138022942655 0
0.000342623134573 -0.134018586566 0
0.0022516060848 -0.141589040141 0
-0.00226078635122 -0.141582461808 0
-0.00112527623509 -0.137157102174 0
-0.00138876527143 -0.140539921359 0
0.00137394324743 -0.140541954171 0
0.00154290088484 -0.13844690439 0
-0.00107921302553 -0.140466132384 0
0.00105555718166 -0.140466417373 0
-0.00231582546535 -0.141794615473 0