# vtk DataFile Version 2.0
Generated with Solid Solver
ASCII
DATASET UNSTRUCTURED_GRID
POINTS 999 float 
0.2 4.325 0.0
1.4 4.325 0.0
1.4 4.825 0.0
0.2 4.825 0.0
1.4 4.34523264049 0.0
1.4 4.36751203886 0.0
1.4 4.39204525371 0.0
1.4 4.4190602782 0.0
1.4 4.44880817466 0.0
1.4 4.48156541084 0.0
1.4 4.51763640748 0.0
1.4 4.5573564007 0.0
1.4 4.60109451608 0.0
1.4 4.64925723872 0.0
1.4 4.70229217343 0.0
1.4 4.76069218095 0.0
1.33333333333 4.825 0.0
1.26666666667 4.825 0.0
1.2 4.825 0.0
1.13333333333 4.825 0.0
1.06666666667 4.825 0.0
1.0 4.825 0.0
0.933333333334 4.825 0.0
0.866666666668 4.825 0.0
0.800000000001 4.825 0.0
0.733333333334 4.825 0.0
0.666666666668 4.825 0.0
0.600000000001 4.825 0.0
0.533333333334 4.825 0.0
0.466666666667 4.825 0.0
0.4 4.825 0.0
0.333333333334 4.825 0.0
0.266666666667 4.825 0.0
0.2 4.76069218095 0.0
0.2 4.70229217343 0.0
0.2 4.64925723872 0.0
0.2 4.60109451608 0.0
0.2 4.5573564007 0.0
0.2 4.51763640748 0.0
0.2 4.48156541084 0.0
0.2 4.44880817466 0.0
0.2 4.4190602782 0.0
0.2 4.39204525371 0.0
0.2 4.36751203886 0.0
0.2 4.34523264049 0.0
0.212131543907 4.30926329506 0.0
0.224675715302 4.29385348652 0.0
0.23762369102 4.27878141198 0.0
0.250966423879 4.26405760374 0.0
0.264694484585 4.24969246611 0.0
0.278798324214 4.23569599189 0.0
0.293267939266 4.22207810803 0.0
0.308093289028 4.20884826442 0.0
0.323263842145 4.19601585877 0.0
0.338769084145 4.18358978512 0.0
0.354597997314 4.17157887342 0.0
0.37073960121 4.15999145532 0.0
0.387182441982 4.14883575334 0.0
0.403915091795 4.13811952025 0.0
0.420925712897 4.12785033813 0.0
0.438202430937 4.11803537461 0.0
0.455733079095 4.10868154223 0.0
0.473505374364 4.09979539439 0.0
0.491506842655 4.09138316882 0.0
0.509724826085 4.0834507802 0.0
0.528146580414 4.07600377808 0.0
0.546759103951 4.06904741762 0.0
0.56554943677 4.06258654322 0.0
0.584504260001 4.05662573401 0.0
0.60361041518 4.0511691282 0.0
0.622854334779 4.04622060039 0.0
0.642222678753 4.04178358113 0.0
0.661701681839 4.03786122392 0.0
0.681277836375 4.03445624851 0.0
0.700937245817 4.03157107217 0.0
0.720666255912 4.02920769845 0.0
0.740450894784 4.02736780161 0.0
0.76027736978 4.02605266363 0.0
0.780131702711 4.02526321235 0.0
0.799999999998 4.025 0.0
0.819868297285 4.02526321235 0.0
0.839722630216 4.02605266363 0.0
0.859549105212 4.02736780161 0.0
0.879333744085 4.02920769845 0.0
0.89906275418 4.03157107217 0.0
0.918722163621 4.03445624851 0.0
0.938298318157 4.03786122392 0.0
0.957777321244 4.04178358113 0.0
0.977145665218 4.04622060039 0.0
0.996389584817 4.0511691282 0.0
1.01549574 4.05662573401 0.0
1.03445056323 4.06258654322 0.0
1.05324089605 4.06904741762 0.0
1.07185341958 4.07600377808 0.0
1.09027517391 4.0834507802 0.0
1.10849315734 4.09138316882 0.0
1.12649462563 4.09979539439 0.0
1.1442669209 4.10868154222 0.0
1.16179756906 4.1180353746 0.0
1.1790742871 4.12785033813 0.0
1.1960849082 4.13811952024 0.0
1.21281755802 4.14883575334 0.0
1.22926039879 4.15999145532 0.0
1.24540200269 4.17157887342 0.0
1.26123091585 4.18358978512 0.0
1.27673615785 4.19601585877 0.0
1.29190671097 4.20884826442 0.0
1.30673206073 4.22207810803 0.0
1.32120167579 4.23569599189 0.0
1.33530551541 4.24969246611 0.0
1.34903357612 4.26405760374 0.0
1.36237630898 4.27878141198 0.0
1.3753242847 4.29385348652 0.0
1.38786845609 4.30926329506 0.0
1.05632730172 4.46025283906 0.0
0.549964048968 4.4630053958 0.0
0.806135520676 4.31186690218 0.0
0.603895783049 4.26079310371 0.0
1.22984770884 4.38318704125 0.0
0.3703382852 4.38423552752 0.0
0.995322815839 4.25565031136 0.0
0.728315816804 4.1765935937 0.0
0.872128173905 4.17288724072 0.0
1.14059401893 4.27298468684 0.0
0.461553191009 4.27181671009 0.0
0.784706775856 4.56821390922 0.0
0.398287125272 4.57945970538 0.0
1.20625306554 4.58334743514 0.0
0.624100842742 4.1589824436 0.0
0.5257453845 4.18811776279 0.0
0.978502430793 4.15488737058 0.0
1.07419209812 4.18825154482 0.0
0.364313698077 4.28677035763 0.0
1.23509538257 4.28681716733 0.0
0.68124123937 4.39284548972 0.0
1.31679378691 4.35012066749 0.0
0.283206213094 4.35012066749 0.0
0.791498533126 4.11467141721 0.0
0.931481076052 4.3801344917 0.0
0.966719065571 4.62778042839 0.0
0.684451667517 4.11068036752 0.0
0.618335406951 4.62686910993 0.0
0.450982331762 4.19686171732 0.0
0.915674266355 4.10995633851 0.0
1.14900051594 4.19689012964 0.0
1.30193709687 4.4481448133 0.0
0.298574667609 4.44816296922 0.0
1.05734787542 4.34990107617 0.0
0.539273225177 4.35252599628 0.0
0.709896798149 4.27721026287 0.0
0.895708916005 4.26924194389 0.0
0.813273511364 4.43835766235 0.0
0.559289631452 4.13230879113 0.0
1.04001407307 4.13281539633 0.0
0.801161810585 4.23146244955 0.0
0.665113819616 4.52056650186 0.0
0.852577362173 4.09111846388 0.0
0.390256727869 4.2242806298 0.0
1.20974450479 4.22428104599 0.0
0.921542541183 4.52778058719 0.0
1.14030889032 4.36437344809 0.0
1.15600477272 4.46808538305 0.0
0.435243219029 4.4750581257 0.0
0.462045157798 4.36654654286 0.0
0.735806812738 4.08472269746 0.0
1.30082934537 4.29793772796 0.0
0.299170654625 4.29793772796 0.0
0.533651712118 4.26265983853 0.0
0.666130919144 4.21652131559 0.0
1.0676097303 4.26179469382 0.0
1.08054433577 4.58530946155 0.0
0.506773767255 4.56568295079 0.0
0.626745312844 4.10124420826 0.0
0.933845304214 4.2106954732 0.0
0.293717639664 4.55175000185 0.0
0.312505022079 4.66426411351 0.0
1.3058164124 4.55154930624 0.0
1.29054387065 4.66302765963 0.0
0.973467966326 4.09941619478 0.0
0.487935413164 4.15087084015 0.0
0.461549079751 4.68836834982 0.0
1.11203248746 4.15093503889 0.0
1.14453515393 4.70617370303 0.0
0.840217564202 4.68891146633 0.0
0.585347033288 4.20539048534 0.0
0.619177396637 4.34227576306 0.0
0.331644410315 4.24962190462 0.0
1.26835558968 4.24962190462 0.0
1.01536156978 4.19987473052 0.0
0.809331033562 4.07065709122 0.0
0.982321540791 4.33437358971 0.0
0.725600576914 4.66999651799 0.0
0.812291456186 4.16642942492 0.0
0.335887692543 4.33918235669 0.0
1.26344844681 4.34017131907 0.0
1.23449730504 4.49457441524 0.0
1.34334172095 4.40539551957 0.0
0.256658279045 4.40539551957 0.0
0.741646926828 4.34287908527 0.0
0.674799084703 4.16673768522 0.0
1.18647435526 4.30955189749 0.0
0.360563250283 4.49596479569 0.0
0.873716483853 4.33845499203 0.0
0.418704489949 4.31146264283 0.0
0.492670911224 4.22931614809 0.0
0.403480880356 4.19046776931 0.0
1.19651541215 4.1904686246 0.0
0.728649253738 4.46214546491 0.0
1.00883674467 4.40174664879 0.0
1.11035034557 4.23161841276 0.0
0.261968539765 4.3130079512 0.0
1.33803146023 4.3130079512 0.0
0.74649980488 4.1318354354 0.0
0.927597725248 4.1577597079 0.0
0.892956618256 4.07619338913 0.0
0.659794281787 4.07951387326 0.0
0.587663534405 4.09486537006 0.0
0.942353209926 4.07935300973 0.0
1.01493747319 4.09476013719 0.0
0.613130017774 4.41369803882 0.0
0.449373501074 4.15377191978 0.0
0.514840228377 4.12225850006 0.0
0.497057592 4.41333092106 0.0
1.15061382426 4.15379293084 0.0
1.08514419473 4.12228328152 0.0
0.745617635771 4.23098957592 0.0
0.87523452213 4.59853036549 0.0
0.855262884783 4.2258970831 0.0
1.01126200032 4.53280064162 0.0
1.09391916408 4.40632408872 0.0
1.04436265455 4.71482000827 0.0
0.314320181089 4.38773968607 0.0
1.28649331902 4.38743720145 0.0
0.771211579291 4.06316862024 0.0
0.432259099658 4.24006002157 0.0
0.698583889427 4.07144353526 0.0
1.16802128371 4.238862881 0.0
1.09587629216 4.3086676659 0.0
1.35920470355 4.35666960471 0.0
0.240795296449 4.35666960471 0.0
0.504003580654 4.30815758118 0.0
0.579942709371 4.5342075073 0.0
0.875915224914 4.12815792528 0.0
0.426503136644 4.40717733008 0.0
0.57541416445 4.30365301522 0.0
0.683877978289 4.33161848113 0.0
0.888061695889 4.44633509246 0.0
0.26012287522 4.49859249103 0.0
1.33987712478 4.49859249103 0.0
0.801393572636 4.37060096582 0.0
0.558460082533 4.72496728209 0.0
1.1741923373 4.41132830101 0.0
0.83220012886 4.12779415912 0.0
1.02815069622 4.30053276509 0.0
0.948308583502 4.2880204454 0.0
0.846588933095 4.50834596945 0.0
0.343666800815 4.43485820652 0.0
1.25632767671 4.43480360053 0.0
0.97849585731 4.47031535602 0.0
1.10170977548 4.51507265998 0.0
0.662193131828 4.26809398492 0.0
0.400503668388 4.26881657105 0.0
1.20117145985 4.26130427377 0.0
0.350957892513 4.21796558019 0.0
1.24904210749 4.21796558019 0.0
0.771964652188 4.18905379403 0.0
0.932165148285 4.72736281402 0.0
0.373672364094 4.73321357765 0.0
0.760245937722 4.28409350779 0.0
0.848718469252 4.05767763075 0.0
1.23385612561 4.7358294747 0.0
0.846421485813 4.28065918421 0.0
0.651597058631 4.13043284014 0.0
0.650489852552 4.72138045504 0.0
0.58457834847 4.16375088261 0.0
0.48701309933 4.18859927013 0.0
0.708495738406 4.58856947756 0.0
1.11203398596 4.18878062515 0.0
0.54865558244 4.10250047869 0.0
1.05126102377 4.10234629471 0.0
0.300013757486 4.26259646442 0.0
1.29998624251 4.26259646442 0.0
0.9465032388 4.12718070354 0.0
0.708587583337 4.14146095907 0.0
0.973348904468 4.19537871864 0.0
0.628721855632 4.19538356945 0.0
0.380175010018 4.34021880077 0.0
0.662092932411 4.45899041267 0.0
1.05133526787 4.22221992007 0.0
0.528087045766 4.64327882187 0.0
1.22233124543 4.33521693908 0.0
1.19001193434 4.36273586668 0.0
0.853024099244 4.39544003492 0.0
0.542800296246 4.22324366905 0.0
0.247706318737 4.45239119247 0.0
1.35229368126 4.45239119247 0.0
0.599153768578 4.12953797005 0.0
1.01616570494 4.16227683178 0.0
0.744705786938 4.40569544575 0.0
1.31929001115 4.73702550052 0.0
0.777615355331 4.15113602511 0.0
1.33132411895 4.60631378639 0.0
0.265621610877 4.60975488866 0.0
0.532023338888 4.15374454388 0.0
1.0697792195 4.15241429251 0.0
0.286371037106 4.73010312914 0.0
0.497725885905 4.50153668256 0.0
0.46053455822 4.31587947599 0.0
0.433799237968 4.54629400991 0.0
0.388624781906 4.65094200004 0.0
0.554823673752 4.40451940232 0.0
1.1421595646 4.31818301431 0.0
1.14760043966 4.61655103139 0.0
1.21258698805 4.65320200685 0.0
1.16279096046 4.53292621409 0.0
0.995762647814 4.12508772517 0.0
0.456229040627 4.61456685246 0.0
0.707289391156 4.21520271873 0.0
0.763036833302 4.74285445535 0.0
0.78386198569 4.49787013126 0.0
[...]
POINT_DATA 999
VECTORS Displacement float
-0.00241142482002 -0.176855091057 0
0.00240112681672 -0.176863423368 0
0.0 -0.18 0
0.0 -0.18 0
0.00259281848894 -0.176849390068 0
0.00277778375642 -0.176830344516 0
0.00294360145614 -0.176807602557 0
0.00308408076012 -0.176797429274 0
0.00316858767927 -0.176808108495 0
0.003220669437 -0.176848555216 0
0.00319001505851 -0.176926255752 0
0.00306992335761 -0.177049736449 0
0.00284696672286 -0.177254523831 0
0.00247733664613 -0.177562378399 0
0.00194297437919 -0.178030087744 0
0.00117400185596 -0.178745722166 0
0.0 -0.18 0
0.0 -0.18 0
0.0 -0.18 0
0.0 -0.18 0
0.0 -0.18 0
0.0 -0.18 0
0.0 -0.18 0
0.0 -0.18 0
0.0 -0.18 0
0.0 -0.18 0
0.0 -0.18 0
0.0 -0.18 0
0.0 -0.18 0
0.0 -0.18 0
0.0 -0.18 0
0.0 -0.18 0
0.0 -0.18 0
-0.00116690559272 -0.178751464504 0
-0.00193592692642 -0.178034856703 0
-0.00249459345961 -0.177563291143 0
-0.00285268799599 -0.177249862597 0
-0.00307379957883 -0.177042550073 0
-0.00319619461563 -0.176917950972 0
-0.00322805053146 -0.176840779336 0
-0.00317652225432 -0.176800372911 0
-0.00309250012561 -0.176789574718 0
-0.00295252914268 -0.176799560685 0
-0.00278722722439 -0.176822143031 0
-0.00260273385782 -0.176841093648 0
-0.00225354909911 -0.176752394028 0
-0.00207997612264 -0.176638138969 0
-0.0018923408324 -0.176505231507 0
-0.00168703704282 -0.176353915614 0
-0.00146524000658 -0.176177878013 0
-0.00123320074919 -0.175972958304 0
-0.000987896101212 -0.175741842107 0
-0.000719714974918 -0.17548163079 0
-0.000432440784204 -0.175171168774 0
-0.000140001653206 -0.174834865907 0
0.000171815033374 -0.174448732029 0
0.00051544764245 -0.174009364809 0
0.000871442947721 -0.173494829666 0
0.00125960267585 -0.172900280213 0
0.00167551934414 -0.172179951929 0
0.0021665969032 -0.171189568328 0
0.00254854713399 -0.170172332871 0
0.00283693900392 -0.169156974103 0
0.00304191695306 -0.168194241727 0
0.00317988218067 -0.167250243524 0
0.00325731608106 -0.166360375404 0
0.00326554466682 -0.165508462662 0
0.00322775014577 -0.164717702992 0
0.00313470812504 -0.163970389903 0
0.00300053379662 -0.16328663905 0
0.00281597881833 -0.162655800912 0
0.00260260070951 -0.162089493486 0
0.00235110755462 -0.16158562461 0
0.00208071583653 -0.16115068859 0
0.00177634502778 -0.160771810617 0
0.00145575897293 -0.160463399357 0
0.00110938471349 -0.160212097054 0
0.000755611758811 -0.160024531164 0
0.00038747984521 -0.159895585036 0
-2.48172780426e-05 -0.15980184344 0
-0.000416798725024 -0.159900104006 0
-0.000786083049029 -0.160026888011 0
-0.00113996861416 -0.160209004725 0
-0.00147865517353 -0.160459459505 0
-0.00179958404262 -0.160772757658 0
-0.00210355909655 -0.161151461178 0
-0.00238340269373 -0.161597345551 0
-0.0026239659299 -0.162094502398 0
-0.00283564215451 -0.162659242866 0
-0.00301953103299 -0.163288668911 0
-0.00315403610021 -0.16397193117 0
-0.00324734983091 -0.164717973063 0
-0.0032869497462 -0.165510055397 0
-0.00327728498945 -0.166363356756 0
-0.00319962316138 -0.167252389998 0
-0.0030617094709 -0.16819569549 0
-0.00285786866731 -0.169156932444 0
-0.00256758175708 -0.170178544055 0
-0.00217752034325 -0.171208502949 0
-0.00168877977679 -0.172190216332 0
-0.00127316180458 -0.172909205476 0
-0.000885025744488 -0.173503263982 0
-0.000528851367966 -0.17401760228 0
-0.000184933645712 -0.174456891647 0
0.000127210725947 -0.174842961601 0
0.00041997837279 -0.175179220738 0
0.000707531915987 -0.175489625887 0
0.00097598188199 -0.175749779904 0
0.0012215387672 -0.17598086959 0
0.00145384257482 -0.176185774238 0
0.00167583997463 -0.176361792105 0
0.0018813275289 -0.176513145955 0
0.00206916333204 -0.176646150055 0
0.00224297563353 -0.176760547048 0
0.00213601083399 -0.173656598537 0
-0.00209533971578 -0.17363645832 0
3.85148076179e-05 -0.167805140902 0
-0.0010285325293 -0.168252179564 0
0.00276881933485 -0.175027608998 0
-0.00277897840109 -0.175027231392 0
0.000969439737595 -0.168108015782 0
2.87004522404e-05 -0.164167853932 0
-6.97339289846e-05 -0.164072458816 0
0.00173981205159 -0.17202707348 0
-0.00173233831247 -0.171946764473 0
-0.000120834671304 -0.174676850144 0
-0.00246320301616 -0.176906133251 0
0.00244821921344 -0.176985423652 0
0.000355941425101 -0.165254144831 0
-0.000224723113599 -0.168592493517 0
-0.000450435910208 -0.165217579752 0
0.000216257535969 -0.168594393859 0
-0.00200586660407 -0.174476367154 0
0.00199463699839 -0.174469654791 0
-0.00106332431581 -0.17061521874 0
0.00263720012444 -0.176034048943 0
-0.0026466594904 -0.176026829268 0
4.85727284588e-05 -0.162141891163 0
0.00114637746037 -0.170397413713 0
0.00109036542862 -0.176400322764 0
0.000843553937441 -0.162917887642 0
-0.00118948321996 -0.176441485757 0
-0.000521137548502 -0.171358124576 0
-0.00087431252091 -0.162901655137 0
0.000510141315093 -0.171365686631 0
0.00308001899003 -0.176310240123 0
-0.00308600748286 -0.176301183536 0
0.0019675920271 -0.171462561714 0
-0.00200753153049 -0.171573349279 0
-0.000551888044032 -0.167189681239 0
0.000536170752425 -0.167019658607 0
0.000121617007709 -0.171363602759 0
0.00111849937543 -0.166337118417 0
-0.00111951743833 -0.166325674572 0
-3.19568905493e-06 -0.165454667976 0
-0.00116014663694 -0.173898036945 0
-0.000523632429059 -0.161706283418 0
-0.00106492489799 -0.173555074899 0
0.0010523136499 -0.173564282113 0
0.0010359044934 -0.173994889127 0
0.00243757311598 -0.17328572776 0
0.00265805841913 -0.175007445102 0
-0.00270217036914 -0.1752015285 0
-0.00244420815657 -0.173264632012 0
0.000665425815438 -0.16163583379 0
0.00212163176333 -0.175701174271 0
-0.00213224988332 -0.175693692582 0
-0.00137999533307 -0.169876844435 0
-0.000359960201381 -0.166011984567 0
0.00136340772498 -0.169892750814 0
0.00191150626787 -0.176200514461 0
-0.00207203354583 -0.175948344382 0
0.00146764696741 -0.163784440393 0
0.000291292500446 -0.165854569248 0
-0.00292170031805 -0.177072415015 0
-0.0020354281875 -0.178160146211 0
0.00291915747588 -0.177075789125 0
0.00205790296079 -0.178149770391 0
-0.00152384002602 -0.163751649975 0
0.000725805657153 -0.169266075411 0
-0.00143455890467 -0.178128525055 0
-0.000738262988893 -0.169270274818 0
0.00129621324463 -0.178409575395 0
0.000211544622939 -0.17740299149 0
-0.000430080708687 -0.167298190549 0
-0.00144147648327 -0.170021579245 0
-0.00146899519547 -0.17503448567 0
0.00145739653955 -0.175042298873 0
0.000329438452825 -0.167185284874 0
-0.00012809587664 -0.160973946858 0
0.00140790044722 -0.169854746745 0
-0.000427177587143 -0.177043233717 0
-2.79463255774e-05 -0.163590938048 0
-0.00254404984967 -0.17525883059 0
0.00254130676327 -0.175259986142 0
0.0029062422725 -0.176145432847 0
0.0029976883032 -0.176443739447 0
-0.00300609423974 -0.176436929524 0
-0.00048446152444 -0.168839068971 0
0.000169013344251 -0.164530131953 0
0.00220378054444 -0.173569188768 0
-0.00293085775303 -0.176194539273 0
0.000592418406578 -0.168801684943 0
-0.00222213307413 -0.17346936424 0
-0.00107573487561 -0.170403177929 0
-0.000354283879497 -0.173010784966 0
0.000341089489787 -0.173018722334 0
-0.000655521163045 -0.172141103508 0
0.0017887261874 -0.17181846365 0
0.00110714111666 -0.170540956963 0
-0.00229708121273 -0.176220429205 0
0.00228653296857 -0.176227975444 0
0.000258042225252 -0.162791929664 0
-0.000295921465265 -0.164326996015 0
-0.00110142418682 -0.161736165767 0
0.00157967334187 -0.162567908235 0
0.0019711504432 -0.164657869245 0
-0.0016249249911 -0.162613292648 0
-0.00201718214801 -0.164736562211 0
-0.00164232755282 -0.171824750443 0
0.000639332302706 -0.170962398766 0
0.00162735765629 -0.167694045176 0
-0.00240941072331 -0.173418926912 0
-0.000651861319198 -0.170970967068 0
-0.00164451682998 -0.167696716149 0
-0.000199777516992 -0.165600606936 0
0.000559928157726 -0.175469867942 0
0.000171096584698 -0.16545986019 0
0.00168958570776 -0.174697081752 0
0.00234016228231 -0.173160035499 0
0.000960355287907 -0.178279658211 0
-0.00287429272373 -0.175805506188 0
0.00286537681481 -0.175819846864 0
0.000368573217444 -0.160845581701 0
-0.00134356019554 -0.172421096431 0
0.00124622442627 -0.16173237017 0
0.00131199040883 -0.172424844599 0
0.00192521100791 -0.171468083793 0
0.00269823087686 -0.176488885385 0
-0.00270783005091 -0.176481313693 0
-0.00193146545367 -0.171459268339 0
-0.00174589360437 -0.174794704562 0
-0.000418316449134 -0.16287860939 0
-0.00270829106003 -0.174417609397 0
-0.00152883090981 -0.169833754851 0
-0.000919145746872 -0.168952699461 0
0.000808952497809 -0.171803290112 0
-0.00314654248618 -0.176797105208 0
0.0031382397684 -0.176803851383 0
8.25735615549e-06 -0.169485032911 0
-0.000876167664665 -0.178435123398 0
0.00270747870925 -0.174488506611 0
-0.000185379837111 -0.162559676999 0
0.00151814891235 -0.169834568244 0
0.000945472361146 -0.168162021686 0
0.000415936584713 -0.173243005444 0
-0.00298388730746 -0.175786952498 0
0.00297676298066 -0.175791443938 0
0.00156408324727 -0.173056321322 0
0.00229686510918 -0.175153768229 0
-0.000777324811954 -0.167475758668 0
-0.00177313883508 -0.173531616889 0
0.00165819337505 -0.173532471869 0
-0.000912122960318 -0.17456454125 0
0.000899970425133 -0.174572525816 0
-2.26053217652e-05 -0.164270974776 0
0.000508932814443 -0.178279722223 0
-0.00115052302369 -0.178923714389 0
-0.000257399050359 -0.167074141856 0
-0.00070496448718 -0.160836774287 0
0.00112531684015 -0.178964032577 0
0.000279712751252 -0.167002266763 0
0.00074606722399 -0.16397422768 0
-0.000599201315526 -0.178197529761 0
0.000314921151636 -0.166321790798 0
-0.000297504698414 -0.169926658776 0
-0.000691748368935 -0.175289568115 0
0.000288528029384 -0.169898005323 0
0.00208632958447 -0.16607013009 0
-0.00210938622284 -0.166066428908 0
-0.00166207318265 -0.175637467971 0
0.00165088551628 -0.175645191173 0
-0.000812228799736 -0.163864692487 0
0.000353663576703 -0.163405177873 0
0.000188388794123 -0.166135956636 0
-0.000199068139304 -0.166092524687 0
-0.00250749662662 -0.174507845787 0
-0.00124272895135 -0.172447021743 0
0.000779855529789 -0.168628038448 0
-0.00155023449398 -0.177152171214 0
0.00246501938597 -0.174520303829 0
0.00258269862542 -0.174178831889 0
0.000476337304345 -0.170284883138 0
-0.000825672568235 -0.168813836319 0
-0.00315932344052 -0.176640490919 0
0.0031514635426 -0.176646877965 0
0.00101524577565 -0.165132275128 0
-0.000362121550815 -0.16630423504 0
-0.000508311501044 -0.170572206715 0
0.00123339736048 -0.178948943427 0
5.58102697505e-05 -0.163175208014 0
0.0026606484404 -0.177545095275 0
-0.00264789887873 -0.177570272181 0
0.00060423431119 -0.167679232422 0
-0.00065820830972 -0.167717071208 0
-0.00130408850261 -0.178881952662 0
-0.00234355443002 -0.174925231303 0
-0.00215281678427 -0.172574733601 0
-0.00250222326704 -0.176217558366 0
-0.00196492179218 -0.177866515555 0
-0.00205125005364 -0.172387077496 0
0.00217072291351 -0.172673342764 0
0.00202586159144 -0.177116779716 0
0.00194688767948 -0.177899548379 0
0.00253691296595 -0.176000290482 0
-0.00110911262874 -0.164892441776 0
-0.00202449057289 -0.177064251928 0
-0.000239225507784 -0.165458878732 0
-0.000130170688314 -0.178492208453 0
-0.00014589717816 -0.172935706559 0
0.000982230147072 -0.169094614149 0
0.000398129848674 -0.172290551727 0
0.000191348012078 -0.165324833042 0
-0.000411720579437 -0.172299564537 0
0.00303950554195 -0.176554323451 0
0.000904623220235 -0.161055892688 0
-0.00196601763253 -0.175165253877 0
0.00195527850736 -0.175172685433 0
-0.000422527961471 -0.173960379894 0
0.000409683321589 -0.173968556677 0
-0.00166733796494 -0.173317089228 0
-0.00262491198119 -0.174216112236 0
0.000304785995795 -0.16166620296 0
-0.000731897304322 -0.174043413851 0
-0.00153575607615 -0.174312752381 0
0.00152461715725 -0.174318399335 0
-0.00303989290059 -0.176511825801 0
0.0028634730376 -0.175416444786 0
0.000678489408789 -0.167116072571 0
-0.00195863167385 -0.176070713005 0
0.00194771300378 -0.176078394192 0
0.00141606261987 -0.17752440025 0
-0.00285866947086 -0.175400587991 0
-0.00248333237964 -0.176517307992 0
0.00247317377293 -0.176525086271 0
0.00205258429067 -0.163387981615 0
3.82286670455e-05 -0.164571641189 0
0.00250980386938 -0.177452277117 0
-0.00252210537282 -0.177446759552 0
-0.00153970853953 -0.170875324265 0
0.000663393349039 -0.162452729052 0
8.63957611446e-06 -0.166365485707 0
-0.000202447885479 -0.161748726511 0
0.00222380590823 -0.172369093284 0
0.00154535133698 -0.17092862898 0
-0.00116322170418 -0.168785275118 0
-0.00156666543249 -0.161742813892 0
-0.00203459084705 -0.163424506148 0
0.00244762269824 -0.174397873087 0
-0.00250128792692 -0.175706326845 0
0.00249192095631 -0.17571249657 0
0.00113016245609 -0.175121119105 0
-0.00223967448062 -0.172387748604 0
-0.00109135840014 -0.16866788131 0
-0.000117724521453 -0.167321309311 0
-0.00124258776806 -0.175097767191 0
-0.000119138242038 -0.176483007693 0
0.00145044744822 -0.169403029375 0
-0.00146463371372 -0.169406566983 0
-0.00118175737685 -0.171437232028 0
0.00110114529955 -0.171420160493 0
-0.00305278794923 -0.177059236109 0
0.00304807402796 -0.177064393805 0
-0.000724512405088 -0.167304203952 0
0.00111586239188 -0.168815678423 0
-3.99244203733e-05 -0.167558758202 0
0.00150811234282 -0.176147101751 0
-0.00104867229095 -0.161087413295 0
0.00125418935632 -0.17188655967 0
0.00288786721198 -0.176596320638 0
-0.0028968889263 -0.176588803351 0
-0.000707292647495 -0.17240144956 0
-0.000716259291405 -0.162222461984 0
0.000694578592642 -0.172408761588 0
-0.000493041457445 -0.166448637317 0
0.000625310780702 -0.176912387376 0
0.00074441615745 -0.179040485331 0
0.00207658548748 -0.172376777535 0
-0.00178928740949 -0.171116064461 0
0.00288320164687 -0.176133715147 0
-0.00289166804078 -0.176127274702 0
0.00277124931688 -0.176800289127 0
-0.00278736822607 -0.176765515084 0
-0.000457489533889 -0.163490403514 0
0.00191793332704 -0.172932692553 0
0.0017293288073 -0.161804518721 0
7.71197750528e-05 -0.160434314489 0
-0.000111930287131 -0.163445253627 0
-0.00260995895977 -0.174351595306 0
-0.00191704339852 -0.173058460846 0
-0.00104692342933 -0.175084389339 0
0.00103495412986 -0.175092286353 0
0.000279268787608 -0.168944802341 0
0.000419540967664 -0.166212040892 0
-0.000405497372509 -0.160609496931 0
0.00206213466994 -0.178186886224 0
-0.0023266383083 -0.174981447174 0
0.00230279618054 -0.174989698152 0
0.00165807991462 -0.170707356219 0
-0.0022271240071 -0.178025926316 0
-0.000701895971507 -0.179099821156 0
0.00254598588324 -0.173763542498 0
-0.00165822516448 -0.176274781035 0
0.000116692979769 -0.165164484606 0
0.00146890031967 -0.170687055546 0
0.00167693510065 -0.170494203195 0
0.000543323447141 -0.167106145434 0
0.00124396571357 -0.16894922442 0
-0.00137540200517 -0.170721272059 0
-0.00273201356915 -0.175990737421 0
0.00119802500994 -0.163307346329 0
0.00091197532271 -0.164590143571 0
-0.0026992800328 -0.175687445201 0
0.00268944804467 -0.1757060754 0
-0.00130832959497 -0.175464159963 0
0.00129659953013 -0.175472042616 0
-5.06342285117e-05 -0.16453391373 0
0.0020877676769 -0.173993544907 0
0.00204196325599 -0.174676347093 0
-0.000119540668474 -0.16518966336 0
-0.00170761290061 -0.170540037847 0
-0.000477420405172 -0.167722713133 0
-0.00228367482458 -0.174171654927 0
-0.00252578666359 -0.176287284939 0
0.00251573700571 -0.176294803307 0
0.000218446652877 -0.178656780011 0
0.000257280926422 -0.168679344843 0
0.000188517597806 -0.170231552184 0
-0.00254579169516 -0.173741953907 0
0.000519281683408 -0.16768960604 0
-0.00125636599925 -0.163293071921 0
-0.00237473912658 -0.174060488363 0
0.000764677322645 -0.169340425142 0
0.000765726922225 -0.179216539306 0
0.00249177713457 -0.165251083946 0
-0.000192298926404 -0.170244381004 0
-0.000737018034051 -0.176756629046 0
0.000103580317771 -0.163437221068 0
-0.000189623171792 -0.168794166219 0
-0.000143053847647 -0.16615646577 0
0.00237941141143 -0.166799730455 0
-0.00255114295987 -0.165253714967 0
-0.000735627606008 -0.169333550435 0
-0.00239884420673 -0.166801033577 0
-2.17489481339e-05 -0.162832317897 0
0.000144625676251 -0.166101765214 0
0.000133755710508 -0.161258836257 0
0.00308852909841 -0.176637680282 0
-0.00309675574581 -0.176630603002 0
0.00246074798203 -0.163811525368 0
0.0021834621274 -0.162685685631 0
-0.000247906391175 -0.178970954539 0
-0.00218825808957 -0.162686259737 0
-0.00247584235706 -0.163847004967 0
0.00211591631962 -0.168591054021 0
0.00154213244137 -0.170350288948 0
-2.92235587278e-05 -0.16470764158 0
-0.00213398900321 -0.168592695887 0
-0.00155437760646 -0.170358315152 0
0.0027819363832 -0.175707723402 0
0.00126741797102 -0.177128310665 0
-0.000173180866864 -0.168683937521 0
0.000748146718497 -0.160578016467 0
-0.00119038750209 -0.162262425805 0
0.00130909408898 -0.161028922356 0
0.000513160233101 -0.163685401718 0
0.0026219690774 -0.174945480095 0
0.00287808223456 -0.176375447231 0
-0.00288699021239 -0.17636836931 0
-0.00206151819635 -0.174613987647 0
0.00300367486451 -0.1761200867 0
-0.00301162949881 -0.176114021061 0
0.000309817815436 -0.174527606326 0
-0.000773439160671 -0.167741123534 0
0.000458155076546 -0.178955584668 0
-0.000414941437913 -0.161284071192 0
0.000746297921449 -0.170022864501 0
0.000193628287361 -0.17341689795 0
-0.00020714148668 -0.173425320987 0
-0.00276022663971 -0.175377186973 0
0.000790271468831 -0.16806043497 0
-0.0013415504126 -0.165478396503 0
1.78821118988e-05 -0.16612080009 0
0.00221898250999 -0.176340672401 0
-9.17016987051e-05 -0.16475623628 0
-0.000813794091297 -0.167983716404 0
0.0012260437406 -0.162365431006 0
-8.7196684972e-07 -0.164413836779 0
-0.00284473427585 -0.175077594375 0
-0.000851584946521 -0.171221668764 0
-0.000348636938161 -0.162479064396 0
-0.000293206357589 -0.171604252592 0
-0.000823906637047 -0.169588745651 0
0.00149227515786 -0.166795956006 0
-0.000155069583226 -0.172126128353 0
0.000142438415403 -0.172134326989 0
-0.00150688810864 -0.166797638838 0
0.000274857522953 -0.167962052073 0
0.000411257573682 -0.162114338926 0
0.00161675395428 -0.165628422032 0
0.00303744316325 -0.176188243425 0
-0.0030416574686 -0.17616114805 0
-0.000695425232325 -0.179279608927 0
-8.09180493227e-05 -0.166131827199 0
0.00283337495821 -0.175064048268 0
0.00020054032152 -0.162247993406 0
-0.0014654478749 -0.161249703037 0
-0.00244349388192 -0.176005468658 0
0.00243306963666 -0.176012752949 0
-0.00213380225587 -0.176411166945 0
0.00212304742832 -0.176418959356 0
-0.000752785338689 -0.16168235145 0
-0.00245282979998 -0.173642141314 0
0.00142297822797 -0.164517536333 0
0.00271029172038 -0.17649505307 0
0.000776149660325 -0.168058753379 0
-0.00103270290667 -0.16419906107 0
0.00275103121947 -0.175385706699 0
-0.00259993698178 -0.176641343698 0
0.00259004093192 -0.176649246594 0
0.000665475789042 -0.17417990426 0
0.00183187474561 -0.1728530115 0
0.000920059348991 -0.168238654393 0
-0.00225695939723 -0.17537792165 0
0.00224662325203 -0.175384468808 0
-0.00141505710904 -0.173184485806 0
-7.5517288245e-05 -0.165076894151 0
0.00136762074246 -0.17321556477 0
0.000697421979616 -0.167252091031 0
0.000594370576358 -0.161140120239 0
-0.00222299238805 -0.172515200963 0
-0.000925776684661 -0.168269244138 0
-0.000766783875939 -0.173068803089 0
0.000753925673918 -0.17307617528 0
0.00144227347912 -0.174135768785 0
-0.00141786955284 -0.171241418616 0
-0.000750529467008 -0.179369422513 0
-0.00164181612446 -0.175943033237 0
0.00163056658016 -0.175950843396 0
0.000841378690395 -0.161936059203 0
0.000897908598087 -0.171777509443 0
-0.000911911602219 -0.171787859922 0
-0.000338762328543 -0.166554304368 0
-8.88174895567e-05 -0.165224292326 0
-0.000556574168346 -0.178807077399 0
-0.000746527057526 -0.170769788878 0
-0.000961825788715 -0.172928104108 0
0.00239993746773 -0.173464130234 0
0.000452350116335 -0.172140462648 0
0.000738703097073 -0.170828494497 0
0.000332736710385 -0.166448913393 0
0.00308663627423 -0.17643599392 0
-0.00309433490777 -0.176429866857 0
-0.00118362533811 -0.169887616765 0
-0.00176098119981 -0.17476675919 0
0.00174767289897 -0.174765775586 0
0.00188612365673 -0.171750712938 0
-0.00129279141797 -0.17463357133 0
0.00126652420403 -0.174629522929 0
-0.00319020750882 -0.176763358625 0
0.00318281440738 -0.176770084527 0
-0.00124142222415 -0.168904939406 0