# vtk DataFile Version 2.0
Generated with Solid Solver
ASCII
DATASET UNSTRUCTURED_GRID
POINTS 999 float 
0.2 4.325 0.0
1.4 4.325 0.0
1.4 4.825 0.0
0.2 4.825 0.0
1.4 4.34523264049 0.0
1.4 4.36751203886 0.0
1.4 4.39204525371 0.0
1.4 4.4190602782 0.0
1.4 4.44880817466 0.0
1.4 4.48156541084 0.0
1.4 4.51763640748 0.0
1.4 4.5573564007 0.0
1.4 4.60109451608 0.0
1.4 4.64925723872 0.0
1.4 4.70229217343 0.0
1.4 4.76069218095 0.0
1.33333333333 4.825 0.0
1.26666666667 4.825 0.0
1.2 4.825 0.0
1.13333333333 4.825 0.0
1.06666666667 4.825 0.0
1.0 4.825 0.0
0.933333333334 4.825 0.0
0.866666666668 4.825 0.0
0.800000000001 4.825 0.0
0.733333333334 4.825 0.0
0.666666666668 4.825 0.0
0.600000000001 4.825 0.0
0.533333333334 4.825 0.0
0.466666666667 4.825 0.0
0.4 4.825 0.0
0.333333333334 4.825 0.0
0.266666666667 4.825 0.0
0.2 4.76069218095 0.0
0.2 4.70229217343 0.0
0.2 4.64925723872 0.0
0.2 4.60109451608 0.0
0.2 4.5573564007 0.0
0.2 4.51763640748 0.0
0.2 4.48156541084 0.0
0.2 4.44880817466 0.0
0.2 4.4190602782 0.0
0.2 4.39204525371 0.0
0.2 4.36751203886 0.0
0.2 4.34523264049 0.0
0.212131543907 4.30926329506 0.0
0.224675715302 4.29385348652 0.0
0.23762369102 4.27878141198 0.0
0.250966423879 4.26405760374 0.0
0.264694484585 4.24969246611 0.0
0.278798324214 4.23569599189 0.0
0.293267939266 4.22207810803 0.0
0.308093289028 4.20884826442 0.0
0.323263842145 4.19601585877 0.0
0.338769084145 4.18358978512 0.0
0.354597997314 4.17157887342 0.0
0.37073960121 4.15999145532 0.0
0.387182441982 4.14883575334 0.0
0.403915091795 4.13811952025 0.0
0.420925712897 4.12785033813 0.0
0.438202430937 4.11803537461 0.0
0.455733079095 4.10868154223 0.0
0.473505374364 4.09979539439 0.0
0.491506842655 4.09138316882 0.0
0.509724826085 4.0834507802 0.0
0.528146580414 4.07600377808 0.0
0.546759103951 4.06904741762 0.0
0.56554943677 4.06258654322 0.0
0.584504260001 4.05662573401 0.0
0.60361041518 4.0511691282 0.0
0.622854334779 4.04622060039 0.0
0.642222678753 4.04178358113 0.0
0.661701681839 4.03786122392 0.0
0.681277836375 4.03445624851 0.0
0.700937245817 4.03157107217 0.0
0.720666255912 4.02920769845 0.0
0.740450894784 4.02736780161 0.0
0.76027736978 4.02605266363 0.0
0.780131702711 4.02526321235 0.0
0.799999999998 4.025 0.0
0.819868297285 4.02526321235 0.0
0.839722630216 4.02605266363 0.0
0.859549105212 4.02736780161 0.0
0.879333744085 4.02920769845 0.0
0.89906275418 4.03157107217 0.0
0.918722163621 4.03445624851 0.0
0.938298318157 4.03786122392 0.0
0.957777321244 4.04178358113 0.0
0.977145665218 4.04622060039 0.0
0.996389584817 4.0511691282 0.0
1.01549574 4.05662573401 0.0
1.03445056323 4.06258654322 0.0
1.05324089605 4.06904741762 0.0
1.07185341958 4.07600377808 0.0
1.09027517391 4.0834507802 0.0
1.10849315734 4.09138316882 0.0
1.12649462563 4.09979539439 0.0
1.1442669209 4.10868154222 0.0
1.16179756906 4.1180353746 0.0
1.1790742871 4.12785033813 0.0
1.1960849082 4.13811952024 0.0
1.21281755802 4.14883575334 0.0
1.22926039879 4.15999145532 0.0
1.24540200269 4.17157887342 0.0
1.26123091585 4.18358978512 0.0
1.27673615785 4.19601585877 0.0
1.29190671097 4.20884826442 0.0
1.30673206073 4.22207810803 0.0
1.32120167579 4.23569599189 0.0
1.33530551541 4.24969246611 0.0
1.34903357612 4.26405760374 0.0
1.36237630898 4.27878141198 0.0
1.3753242847 4.29385348652 0.0
1.38786845609 4.30926329506 0.0
1.05632730172 4.46025283906 0.0
0.549964048968 4.4630053958 0.0
0.806135520676 4.31186690218 0.0
0.603895783049 4.26079310371 0.0
1.22984770884 4.38318704125 0.0
0.3703382852 4.38423552752 0.0
0.995322815839 4.25565031136 0.0
0.728315816804 4.1765935937 0.0
0.872128173905 4.17288724072 0.0
1.14059401893 4.27298468684 0.0
0.461553191009 4.27181671009 0.0
0.784706775856 4.56821390922 0.0
0.398287125272 4.57945970538 0.0
1.20625306554 4.58334743514 0.0
0.624100842742 4.1589824436 0.0
0.5257453845 4.18811776279 0.0
0.978502430793 4.15488737058 0.0
1.07419209812 4.18825154482 0.0
0.364313698077 4.28677035763 0.0
1.23509538257 4.28681716733 0.0
0.68124123937 4.39284548972 0.0
1.31679378691 4.35012066749 0.0
0.283206213094 4.35012066749 0.0
0.791498533126 4.11467141721 0.0
0.931481076052 4.3801344917 0.0
0.966719065571 4.62778042839 0.0
0.684451667517 4.11068036752 0.0
0.618335406951 4.62686910993 0.0
0.450982331762 4.19686171732 0.0
0.915674266355 4.10995633851 0.0
1.14900051594 4.19689012964 0.0
1.30193709687 4.4481448133 0.0
0.298574667609 4.44816296922 0.0
1.05734787542 4.34990107617 0.0
0.539273225177 4.35252599628 0.0
0.709896798149 4.27721026287 0.0
0.895708916005 4.26924194389 0.0
0.813273511364 4.43835766235 0.0
0.559289631452 4.13230879113 0.0
1.04001407307 4.13281539633 0.0
0.801161810585 4.23146244955 0.0
0.665113819616 4.52056650186 0.0
0.852577362173 4.09111846388 0.0
0.390256727869 4.2242806298 0.0
1.20974450479 4.22428104599 0.0
0.921542541183 4.52778058719 0.0
1.14030889032 4.36437344809 0.0
1.15600477272 4.46808538305 0.0
0.435243219029 4.4750581257 0.0
0.462045157798 4.36654654286 0.0
0.735806812738 4.08472269746 0.0
1.30082934537 4.29793772796 0.0
0.299170654625 4.29793772796 0.0
0.533651712118 4.26265983853 0.0
0.666130919144 4.21652131559 0.0
1.0676097303 4.26179469382 0.0
1.08054433577 4.58530946155 0.0
0.506773767255 4.56568295079 0.0
0.626745312844 4.10124420826 0.0
0.933845304214 4.2106954732 0.0
0.293717639664 4.55175000185 0.0
0.312505022079 4.66426411351 0.0
1.3058164124 4.55154930624 0.0
1.29054387065 4.66302765963 0.0
0.973467966326 4.09941619478 0.0
0.487935413164 4.15087084015 0.0
0.461549079751 4.68836834982 0.0
1.11203248746 4.15093503889 0.0
1.14453515393 4.70617370303 0.0
0.840217564202 4.68891146633 0.0
0.585347033288 4.20539048534 0.0
0.619177396637 4.34227576306 0.0
0.331644410315 4.24962190462 0.0
1.26835558968 4.24962190462 0.0
1.01536156978 4.19987473052 0.0
0.809331033562 4.07065709122 0.0
0.982321540791 4.33437358971 0.0
0.725600576914 4.66999651799 0.0
0.812291456186 4.16642942492 0.0
0.335887692543 4.33918235669 0.0
1.26344844681 4.34017131907 0.0
1.23449730504 4.49457441524 0.0
1.34334172095 4.40539551957 0.0
0.256658279045 4.40539551957 0.0
0.741646926828 4.34287908527 0.0
0.674799084703 4.16673768522 0.0
1.18647435526 4.30955189749 0.0
0.360563250283 4.49596479569 0.0
0.873716483853 4.33845499203 0.0
0.418704489949 4.31146264283 0.0
0.492670911224 4.22931614809 0.0
0.403480880356 4.19046776931 0.0
1.19651541215 4.1904686246 0.0
0.728649253738 4.46214546491 0.0
1.00883674467 4.40174664879 0.0
1.11035034557 4.23161841276 0.0
0.261968539765 4.3130079512 0.0
1.33803146023 4.3130079512 0.0
0.74649980488 4.1318354354 0.0
0.927597725248 4.1577597079 0.0
0.892956618256 4.07619338913 0.0
0.659794281787 4.07951387326 0.0
0.587663534405 4.09486537006 0.0
0.942353209926 4.07935300973 0.0
1.01493747319 4.09476013719 0.0
0.613130017774 4.41369803882 0.0
0.449373501074 4.15377191978 0.0
0.514840228377 4.12225850006 0.0
0.497057592 4.41333092106 0.0
1.15061382426 4.15379293084 0.0
1.08514419473 4.12228328152 0.0
0.745617635771 4.23098957592 0.0
0.87523452213 4.59853036549 0.0
0.855262884783 4.2258970831 0.0
1.01126200032 4.53280064162 0.0
1.09391916408 4.40632408872 0.0
1.04436265455 4.71482000827 0.0
0.314320181089 4.38773968607 0.0
1.28649331902 4.38743720145 0.0
0.771211579291 4.06316862024 0.0
0.432259099658 4.24006002157 0.0
0.698583889427 4.07144353526 0.0
1.16802128371 4.238862881 0.0
1.09587629216 4.3086676659 0.0
1.35920470355 4.35666960471 0.0
0.240795296449 4.35666960471 0.0
0.504003580654 4.30815758118 0.0
0.579942709371 4.5342075073 0.0
0.875915224914 4.12815792528 0.0
0.426503136644 4.40717733008 0.0
0.57541416445 4.30365301522 0.0
0.683877978289 4.33161848113 0.0
0.888061695889 4.44633509246 0.0
0.26012287522 4.49859249103 0.0
1.33987712478 4.49859249103 0.0
0.801393572636 4.37060096582 0.0
0.558460082533 4.72496728209 0.0
1.1741923373 4.41132830101 0.0
0.83220012886 4.12779415912 0.0
1.02815069622 4.30053276509 0.0
0.948308583502 4.2880204454 0.0
0.846588933095 4.50834596945 0.0
0.343666800815 4.43485820652 0.0
1.25632767671 4.43480360053 0.0
0.97849585731 4.47031535602 0.0
1.10170977548 4.51507265998 0.0
0.662193131828 4.26809398492 0.0
0.400503668388 4.26881657105 0.0
1.20117145985 4.26130427377 0.0
0.350957892513 4.21796558019 0.0
1.24904210749 4.21796558019 0.0
0.771964652188 4.18905379403 0.0
0.932165148285 4.72736281402 0.0
0.373672364094 4.73321357765 0.0
0.760245937722 4.28409350779 0.0
0.848718469252 4.05767763075 0.0
1.23385612561 4.7358294747 0.0
0.846421485813 4.28065918421 0.0
0.651597058631 4.13043284014 0.0
0.650489852552 4.72138045504 0.0
0.58457834847 4.16375088261 0.0
0.48701309933 4.18859927013 0.0
0.708495738406 4.58856947756 0.0
1.11203398596 4.18878062515 0.0
0.54865558244 4.10250047869 0.0
1.05126102377 4.10234629471 0.0
0.300013757486 4.26259646442 0.0
1.29998624251 4.26259646442 0.0
0.9465032388 4.12718070354 0.0
0.708587583337 4.14146095907 0.0
0.973348904468 4.19537871864 0.0
0.628721855632 4.19538356945 0.0
0.380175010018 4.34021880077 0.0
0.662092932411 4.45899041267 0.0
1.05133526787 4.22221992007 0.0
0.528087045766 4.64327882187 0.0
1.22233124543 4.33521693908 0.0
1.19001193434 4.36273586668 0.0
0.853024099244 4.39544003492 0.0
0.542800296246 4.22324366905 0.0
0.247706318737 4.45239119247 0.0
1.35229368126 4.45239119247 0.0
0.599153768578 4.12953797005 0.0
1.01616570494 4.16227683178 0.0
0.744705786938 4.40569544575 0.0
1.31929001115 4.73702550052 0.0
0.777615355331 4.15113602511 0.0
1.33132411895 4.60631378639 0.0
0.265621610877 4.60975488866 0.0
0.532023338888 4.15374454388 0.0
1.0697792195 4.15241429251 0.0
0.286371037106 4.73010312914 0.0
0.497725885905 4.50153668256 0.0
0.46053455822 4.31587947599 0.0
0.433799237968 4.54629400991 0.0
0.388624781906 4.65094200004 0.0
0.554823673752 4.40451940232 0.0
1.1421595646 4.31818301431 0.0
1.14760043966 4.61655103139 0.0
1.21258698805 4.65320200685 0.0
1.16279096046 4.53292621409 0.0
0.995762647814 4.12508772517 0.0
0.456229040627 4.61456685246 0.0
0.707289391156 4.21520271873 0.0
0.763036833302 4.74285445535 0.0
0.78386198569 4.49787013126 0.0
[...]
POINT_DATA 999
VECTORS Displacement float
-0.00118119751111 -0.106716396321 0
0.00116910997655 -0.106724480052 0
0.0 -0.108 0
0.0 -0.108 0
0.00124227034504 -0.106718100656 0
0.0013135173731 -0.106708650975 0
0.00137727307856 -0.106696520992 0
0.00143036927877 -0.106687946136 0
0.00145989461014 -0.106686600121 0
0.00147497216075 -0.106696285365 0
0.00145378817466 -0.106720414174 0
0.0013927684593 -0.106763019782 0
0.0012856721266 -0.106840039551 0
0.00111325146737 -0.106961900878 0
0.000867927773916 -0.107154247039 0
0.00052008315196 -0.107457947191 0
0.0 -0.108 0
0.0 -0.108 0
0.0 -0.108 0
0.0 -0.108 0
0.0 -0.108 0
0.0 -0.108 0
0.0 -0.108 0
0.0 -0.108 0
0.0 -0.108 0
0.0 -0.108 0
0.0 -0.108 0
0.0 -0.108 0
0.0 -0.108 0
0.0 -0.108 0
0.0 -0.108 0
0.0 -0.108 0
0.0 -0.108 0
-0.000518040735604 -0.107459225053 0
-0.000866851374087 -0.107154770688 0
-0.0011234463474 -0.106959812511 0
-0.00129152277714 -0.106834840183 0
-0.00139849175255 -0.106756413154 0
-0.0014611441765 -0.106713094609 0
-0.00148338109552 -0.106689010672 0
-0.00146902621929 -0.10667918387 0
-0.00144015963141 -0.106680346982 0
-0.00138769961173 -0.106688731742 0
-0.00132455729583 -0.106700709694 0
-0.00125387421081 -0.106710061594 0
-0.00112144214473 -0.106678694103 0
-0.00105575775387 -0.106637504049 0
-0.000984490055332 -0.106589804917 0
-0.000906407049296 -0.106535513813 0
-0.00082214784176 -0.106472418123 0
-0.000733868006608 -0.106398987382 0
-0.000640854817496 -0.106316498945 0
-0.000539831989563 -0.106223877245 0
-0.000432846607085 -0.106114814412 0
-0.000324205874507 -0.105997486249 0
-0.000209505850524 -0.105864620336 0
-8.65584644663e-05 -0.105716650555 0
3.8722485888e-05 -0.105549181862 0
0.000170542666205 -0.105364101523 0
0.000307388199306 -0.105158432322 0
0.000452119226959 -0.10492727392 0
0.000599511123011 -0.104667203697 0
0.000761175677042 -0.104373786898 0
0.00092257301551 -0.104038512117 0
0.00110421037527 -0.103642163079 0
0.00128412913404 -0.10316239245 0
0.00148481683361 -0.102529200269 0
0.00162840761196 -0.101846098887 0
0.00170360828284 -0.10119118315 0
0.0017232403254 -0.100580360198 0
0.00168264243159 -0.100011759606 0
0.00160490356549 -0.0994986443583 0
0.00148470197059 -0.0990365503282 0
0.00134080688428 -0.0986400602273 0
0.00115997774102 -0.0982911156647 0
0.000960548095892 -0.0980092585311 0
0.000732721560472 -0.0977824635458 0
0.000497963063731 -0.0976182322604 0
0.000251562024883 -0.0975186186405 0
-2.27108986528e-05 -0.0974828350914 0
-0.000279699421952 -0.0975225151383 0
-0.000528314561742 -0.0976231039645 0
-0.000763508206603 -0.0977828880922 0
-0.000983312561608 -0.0980083183714 0
-0.00118354036127 -0.0982934246776 0
-0.00136536307267 -0.0986417577006 0
-0.00151831985699 -0.0990495759495 0
-0.00162691075725 -0.0995035577606 0
-0.00170294361013 -0.100014360128 0
-0.00174324355655 -0.100581588777 0
-0.00172513272154 -0.101191010347 0
-0.00165114863694 -0.101846564543 0
-0.00150586813115 -0.102533973583 0
-0.00130444768035 -0.103165161497 0
-0.00112391769027 -0.103645488032 0
-0.000941857406487 -0.10404222112 0
-0.000780063507216 -0.104377754199 0
-0.000618075925001 -0.104671351176 0
-0.000470383202897 -0.10493164249 0
-0.000325307720441 -0.1051630968 0
-0.000188068831492 -0.105369069744 0
-5.58449604123e-05 -0.105554436101 0
6.9833970559e-05 -0.105722205451 0
0.000193202251649 -0.105870489589 0
0.000308348479891 -0.106003653104 0
0.000417454955787 -0.106121248733 0
0.000524873725675 -0.106230524001 0
0.000626291240491 -0.106323307285 0
0.00071966787989 -0.106405957234 0
0.000808313725545 -0.106479552294 0
0.000892919691654 -0.106542805631 0
0.000971343415845 -0.106597267216 0
0.00104295499669 -0.106645151944 0
0.00110899021542 -0.106686545429 0
0.0010874030839 -0.105285423455 0
-0.00107393818804 -0.105268237747 0
2.4636478888e-05 -0.102217058105 0
-0.000797880936503 -0.102859959601 0
0.00133150789014 -0.106008146727 0
-0.00134195084026 -0.106005060864 0
0.000767784275001 -0.102793241405 0
-0.000156378396662 -0.100244578233 0
0.000124655819761 -0.10019070698 0
0.000979600195266 -0.104879200599 0
-0.000987872245063 -0.104844035614 0
-6.40258141599e-05 -0.105599905496 0
-0.00115367032813 -0.106714294495 0
0.00114184836766 -0.106749359248 0
-0.000198098354312 -0.101360310463 0
-0.000476606032104 -0.103544719406 0
0.000139191921905 -0.101367246776 0
0.000462530370385 -0.103544468601 0
-0.00103572876131 -0.105840883897 0
0.00102251032364 -0.105841138267 0
-0.000628011382573 -0.103738755632 0
0.00126360099481 -0.106411961428 0
-0.00127483190524 -0.106405536672 0
8.74268383479e-06 -0.098907707606 0
0.000678564006816 -0.103655227538 0
0.00053662213367 -0.106417757816 0
0.000267374981768 -0.0996672793358 0
-0.000586529559993 -0.106440343398 0
-0.000485437938383 -0.10478845611 0
-0.000295777036809 -0.0996596227566 0
0.000470520658287 -0.104792646474 0
0.00143245675346 -0.106502026027 0
-0.00144072245756 -0.106495551927 0
0.00109736576371 -0.104396799798 0
-0.00111732316602 -0.10444769486 0
-0.000445253822447 -0.101979220329 0
0.000445569571078 -0.101902944408 0
6.74480104341e-05 -0.104029420437 0
0.000106636493199 -0.102513267125 0
-0.000117069839016 -0.102502800438 0
-4.04942118176e-06 -0.10091390516 0
-0.000604098458471 -0.105279507124 0
-0.00024583609741 -0.0986903661997 0
-0.000668591271439 -0.105541368358 0
0.000653606830466 -0.105546829978 0
0.000534958840021 -0.105316368853 0
0.00124218065393 -0.105273424941 0
0.00128530942005 -0.105936091015 0
-0.00130368003708 -0.10601631069 0
-0.00125186337326 -0.105258692613 0
0.000314247914618 -0.0986732259805 0
0.00106378757343 -0.106296863783 0
-0.00107646687836 -0.106290396837 0
-0.00092458229352 -0.103854668102 0
-0.000470678603333 -0.101497489431 0
0.000906800067033 -0.103869913257 0
0.000922886326479 -0.106376991597 0
-0.00100422720751 -0.10627574626 0
0.00051635728785 -0.100573115099 0
0.00042958673772 -0.101415953113 0
-0.00134374621505 -0.106791173158 0
-0.000929347590082 -0.107233057788 0
0.00133880889117 -0.106794921417 0
0.000936995017244 -0.107229928876 0
-0.000566395515397 -0.100557775539 0
-4.41756329851e-05 -0.104136451147 0
-0.000674826750313 -0.107208467065 0
2.71738183854e-05 -0.104139746572 0
0.000606539307714 -0.107328215946 0
0.000103968286769 -0.106844352756 0
-0.000591656783163 -0.102579972296 0
-0.000885088286452 -0.103584939959 0
-0.000821199521948 -0.1060592376 0
0.000807226697363 -0.106065431898 0
0.000539637857388 -0.102539795651 0
-7.64627932768e-05 -0.0981777797719 0
0.000870529420027 -0.103516091469 0
-0.0002129015589 -0.106685354716 0
8.2838541578e-06 -0.0998080187521 0
-0.00124237928088 -0.106116490165 0
0.00123378035346 -0.106119614535 0
0.00136106829135 -0.106422839852 0
0.00140090538974 -0.106558246897 0
-0.00141082353661 -0.10655185035 0
-0.00032228915988 -0.102789423067 0
-0.000198288628335 -0.100654446647 0
0.00112783901519 -0.105469980584 0
-0.00137487812141 -0.106441460677 0
0.000391629922765 -0.102788068226 0
-0.00114710238858 -0.105424555748 0
-0.000767382172047 -0.104272222334 0
-0.000393339487249 -0.105378538341 0
0.000377393559709 -0.105383252229 0
-0.000362338674272 -0.104424757493 0
0.000979725282551 -0.104434184825 0
0.000765146483891 -0.104329686853 0
-0.00113861780958 -0.10648255112 0
0.00112625110075 -0.106489488308 0
3.27252576846e-05 -0.099367279184 0
0.000123105945779 -0.100554070599 0
-0.000568715873355 -0.0988405040381 0
0.000757140839143 -0.0996122126792 0
0.000714706271971 -0.10145452824 0
-0.000789722606323 -0.0996579555558 0
-0.000739932772685 -0.10152686951 0
-0.000907327282631 -0.104398648032 0
-3.44825732762e-05 -0.104772084402 0
0.0003236992567 -0.103554221601 0
-0.0012297973382 -0.105252500501 0
1.72442425782e-05 -0.104776085105 0
-0.000342038518606 -0.103557000899 0
-0.000228349563916 -0.101040601278 0
0.000281513017512 -0.105972804151 0
0.000209047668718 -0.100962343145 0
0.000847720730573 -0.105689633115 0
0.00120111501859 -0.105138270858 0
0.000459345682458 -0.107258948934 0
-0.00136653838898 -0.10631379059 0
0.00135612551499 -0.106322557638 0
0.000205333450477 -0.0981104639578 0
-0.00080201075754 -0.10510537344 0
0.000652626407822 -0.0988762772238 0
0.000778568246943 -0.105110260202 0
0.00108540297918 -0.104520306329 0
0.00128442336856 -0.106581174007 0
-0.00129566294516 -0.106574066918 0
-0.00109733039296 -0.104516557949 0
-0.00087660119326 -0.105738381297 0
-8.82144480604e-05 -0.0994803139485 0
-0.00132967344156 -0.105727848064 0
-0.000970795674578 -0.103644440955 0
-0.000610257695817 -0.102931100152 0
0.000448607584918 -0.104274425121 0
-0.00144988726586 -0.106681400566 0
0.00144141825827 -0.10668733132 0
2.91335046728e-06 -0.103092775697 0
-0.000419976003818 -0.107324889477 0
0.00132097205576 -0.105757423676 0
-4.62484687656e-05 -0.0991875683656 0
0.000959877982307 -0.10365920819 0
0.0006902059219 -0.10262801644 0
0.000219235972046 -0.104935629539 0
-0.0014093336091 -0.106293144979 0
0.00140067305108 -0.106297512594 0
0.000822671896257 -0.104936756438 0
0.00112082433081 -0.105950870651 0
-0.000629174806635 -0.102258396833 0
-0.000955219618933 -0.105495630688 0
0.000899509878956 -0.10550470491 0
-0.000607804710248 -0.105898905115 0
0.000592974841497 -0.105904823632 0
-8.2740667923e-05 -0.100229031662 0
0.000248014522866 -0.107243767869 0
-0.000529192190811 -0.107549513165 0
-0.000208112758599 -0.101841422807 0
-0.000418668394651 -0.0981383227007 0
0.000515689804827 -0.107567158869 0
0.000224377051084 -0.101809993348 0
9.7522820769e-05 -0.100478488565 0
-0.000292713351489 -0.107209785659 0
-0.000267007289116 -0.102196446436 0
-0.000447985682348 -0.104226535471 0
-0.000351885974338 -0.105895089139 0
0.000435985998804 -0.104216117312 0
0.00062374175947 -0.102624154554 0
-0.000644895090236 -0.102623490898 0
-0.000895599266553 -0.106275086793 0
0.000882032278817 -0.106281665001 0
-0.000152902897068 -0.100406344293 0
-5.46495976719e-06 -0.0998522020759 0
0.000447041309978 -0.101776017413 0
-0.000460287387785 -0.101738951595 0
-0.00124114036687 -0.105821155886 0
-0.000674200773004 -0.104617679544 0
0.000703985840302 -0.10334620168 0
-0.000745010496614 -0.106778309114 0
0.00121568344927 -0.105831615109 0
0.00127444308704 -0.105669379211 0
0.000283438336056 -0.103513123425 0
-0.000730069007342 -0.103451357456 0
-0.00146450256645 -0.106623478029 0
0.0014555308515 -0.106629625224 0
0.000125325451475 -0.101533052519 0
0.000236760002726 -0.102202490071 0
-0.000301896945796 -0.103656153381 0
0.00055562614926 -0.107557928174 0
-2.27001515337e-05 -0.0995583301936 0
0.00120981066229 -0.106978123766 0
-0.00120614171849 -0.106985625882 0
-0.000139793544292 -0.103262170298 0
0.000103932045953 -0.103298189239 0
-0.000589709238789 -0.107529653964 0
-0.00115203400159 -0.105856064486 0
-0.00114860869959 -0.105030750495 0
-0.00118885073994 -0.106422933702 0
-0.000911562479033 -0.107109964849 0
-0.00109717962652 -0.104739721896 0
0.00114495833516 -0.105072287242 0
0.000955145757298 -0.106787420926 0
0.00090061535983 -0.107124792897 0
0.00120590999522 -0.106334641178 0
-0.000201507967817 -0.101365337814 0
-0.000958262251473 -0.106763702966 0
-0.000336439080737 -0.101048942379 0
-6.46504770608e-05 -0.107331908908 0
-7.97153035117e-05 -0.104785563017 0
0.000638840556644 -0.10301717612 0
-0.000114651367844 -0.105170126881 0
0.0003030392704 -0.10097505186 0
9.78510011903e-05 -0.105174730521 0
0.00140635204013 -0.106591481304 0
0.000513980705981 -0.0983182233481 0
-0.00101395678711 -0.106098391803 0
0.00100086200419 -0.106104452527 0
-0.00042255470725 -0.105695536198 0
0.000406857764043 -0.105701014256 0
-0.00087248872888 -0.105067075752 0
-0.00129818570614 -0.10567524187 0
0.000129724520427 -0.0986300682153 0
-0.000382066152246 -0.105321768533 0
-0.000849720094044 -0.105796886022 0
0.00083586550223 -0.105801824026 0
-0.00141310570189 -0.106572799115 0
0.00136282166969 -0.106132058867 0
0.000615033596657 -0.102139852117 0
-0.00100911996081 -0.106430605329 0
0.000996078837996 -0.10643751265 0
0.000676469951797 -0.106940044484 0
-0.00136565205057 -0.106121504163 0
-0.00120921920021 -0.106590123478 0
0.00119731744845 -0.106597455833 0
0.000962034015301 -0.100413803606 0
0.000109437079507 -0.100421770566 0
0.00115354703253 -0.106946042139 0
-0.00116201142948 -0.1069421393 0
-0.000949472219499 -0.104371507948 0
0.000231003512246 -0.0992551753742 0
6.44994549896e-06 -0.101430553803 0
-9.26719752735e-05 -0.098669825663 0
0.00118147217218 -0.104857881242 0
0.000940660144781 -0.104393644224 0
-0.000799637029837 -0.102987637608 0
-0.000874976260587 -0.0989601519319 0
-0.000952039487033 -0.100433742869 0
0.00120969795106 -0.105650848901 0
-0.00122064294894 -0.106288268642 0
0.00120916201855 -0.106294094813 0
0.000568781993037 -0.105839312886 0
-0.00119424930985 -0.104866433642 0
-0.000834424034802 -0.103177053348 0
0.000350790314501 -0.102847838097 0
-0.000627765849916 -0.105834511889 0
-6.1029719742e-05 -0.106427425195 0
0.000244716956526 -0.104309995149 0
-0.000262465341365 -0.10431357465 0
-0.000765570631146 -0.104724996801 0
0.00072163270689 -0.104730706584 0
-0.00139815762504 -0.106780623537 0
0.00139193803016 -0.10678570667 0
-0.000672905017251 -0.10233378026 0
0.000829969807981 -0.103261017008 0
-0.000425194008991 -0.102952572799 0
0.000737690088601 -0.106326500869 0
-0.00061143974593 -0.0983636379493 0
0.00068963819468 -0.104361634557 0
0.00135733937581 -0.106618190399 0
-0.00136791328927 -0.106611058452 0
-0.000539019976047 -0.105152480349 0
-0.000292314080618 -0.0990980286209 0
0.000523627876054 -0.105156800256 0
-0.000481464925367 -0.101646537281 0
0.000308774392664 -0.106631073318 0
0.000350610157675 -0.107591633129 0
0.00110421706682 -0.104749591128 0
-0.00102282027197 -0.104159221207 0
0.00135945240064 -0.106443633697 0
-0.00136966669603 -0.106437662221 0
0.00128528974861 -0.106682626227 0
-0.00129662289469 -0.106667321702 0
-3.37537553055e-05 -0.0999604169318 0
0.00102442656786 -0.105242280726 0
0.000972832981619 -0.0990520218571 0
4.28480527055e-05 -0.0978477848892 0
3.36820696626e-05 -0.0997531833294 0
-0.00128845845885 -0.105662709618 0
-0.00102774600724 -0.105294434321 0
-0.000660176447341 -0.106081465093 0
0.000645619158479 -0.106087753179 0
0.000180223489603 -0.102823863306 0
0.000441878048639 -0.101521409738 0
-0.000250513627459 -0.0979634116968 0
0.000929868342648 -0.107237429776 0
-0.00115877783116 -0.106018888708 0
0.00114133059551 -0.106025449799 0
0.000965131422479 -0.103952028876 0
-0.00100890886089 -0.107170519698 0
-0.000331054410445 -0.107616426634 0
0.00127324686479 -0.105441074227 0
-0.000808792092774 -0.106392614346 0
-0.000284344742361 -0.101161839686 0
0.000855977103731 -0.103867189186 0
0.00101517875149 -0.1040562193 0
0.0006108946851 -0.10233458202 0
0.000845981398052 -0.103135538269 0
-0.000805094502273 -0.103852843305 0
-0.0012944824406 -0.10634435712 0
0.000416001668117 -0.100096131082 0
0.00011529728735 -0.101053586486 0
-0.00129887768699 -0.106275436721 0
0.0012875822845 -0.106285917477 0
-0.000760296624895 -0.106215290699 0
0.000746128343291 -0.106221832726 0
0.000205071446951 -0.100559804888 0
0.00106844111741 -0.105652689322 0
0.00101530990213 -0.105714939303 0
0.000268912342078 -0.101171339316 0
-0.00103601290223 -0.10407218918 0
-0.000355293634111 -0.102218479689 0
-0.00115514131966 -0.105706346461 0
-0.00122642006562 -0.106504504281 0
0.00121465779279 -0.10651142027 0
0.000106696239463 -0.107406278845 0
-0.000262554670195 -0.103742617972 0
-0.000231887580952 -0.104450386417 0
-0.00127977183177 -0.105431571702 0
0.000384007455198 -0.102214135251 0
-0.00046245884086 -0.10009873983 0
-0.00119113451159 -0.105496331227 0
0.000672144283367 -0.103796584059 0
0.000354971964173 -0.107670157449 0
0.000964391335614 -0.102093954211 0
0.000218235333658 -0.104455582711 0
-0.000365873455144 -0.106564517724 0
-5.28664594989e-05 -0.0997504379335 0
0.00027705383824 -0.10378452598 0
-0.000134925965465 -0.101323783267 0
0.000724110577985 -0.10321433276 0
-0.00101095152073 -0.102109082055 0
-0.000669120091064 -0.103804133093 0
-0.000743443335232 -0.103216734163 0
-9.38838063115e-06 -0.0993371196373 0
0.000135622574549 -0.101296388092 0
6.1257571108e-05 -0.0983554496123 0
0.0014335249313 -0.106628684069 0
-0.00144310786469 -0.106621951175 0
0.00118890569659 -0.100879185366 0
0.00117009530451 -0.0998706719901 0
-0.000121561649194 -0.107547178547 0
-0.00118114730263 -0.0998681096595 0
-0.00120079665382 -0.100906485946 0
0.000516262403046 -0.10407903778 0
0.000277775571064 -0.104655052772 0
-0.000252784385951 -0.100652291338 0
-0.000534664406813 -0.104082604839 0
-0.000295706627377 -0.104659027805 0
0.00131876251972 -0.106234626896 0
0.00061339975665 -0.106754908844 0
-0.000117863203007 -0.102685392922 0
0.000456539230839 -0.0979744335001 0
-0.000557585458202 -0.0992603653427 0
0.000784731523482 -0.0983771683253 0
1.98438420786e-05 -0.100145697623 0
0.00127197859136 -0.105990070179 0
0.00135511300988 -0.106535509382 0
-0.0013656163574 -0.106528924317 0
-0.00102990757579 -0.105688375913 0
0.00140675914297 -0.106433266905 0
-0.00141623212579 -0.106427731839 0
0.000157954704633 -0.105533030976 0
-0.000716457757987 -0.102691282899 0
0.000221028683138 -0.107544773755 0
-0.000218367338411 -0.0983942048098 0
0.000451394295522 -0.1034117798 0
-0.000193687376058 -0.105521536597 0
0.000177185596135 -0.10552670841 0
-0.00132783163966 -0.106151081589 0
0.00057129003389 -0.102487265066 0
-0.000271265158017 -0.101923247398 0
-0.000387532291637 -0.101902992836 0
0.00105812361059 -0.106458840331 0
-0.000180509134046 -0.100552603364 0
-0.000598952389205 -0.102459426175 0
0.000556033322924 -0.0993544200168 0
9.31415795714e-06 -0.100302060422 0
-0.00136904178348 -0.106006885038 0
-0.000488198113552 -0.10400027349 0
-0.000103832848953 -0.0991752892555 0
-0.000167087892495 -0.104150740777 0
-0.00051863475807 -0.103210932836 0
0.000275735465018 -0.102963329934 0
-0.000322400138438 -0.105093669473 0
0.000306368492761 -0.105098155533 0
-0.00029258176725 -0.102964539028 0
0.000194361994397 -0.102314965616 0
0.000145650172591 -0.0989459031384 0
0.000398636871887 -0.102139201346 0
0.00141614778327 -0.106449889229 0
-0.00142383571116 -0.106437080598 0
-0.000323464716782 -0.107696149733 0
0.000352047922333 -0.101935389094 0
0.00135843490632 -0.106003401853 0
5.48903625284e-05 -0.0989912059613 0
-0.000872581316477 -0.0985683038243 0
-0.00119606115233 -0.106401148222 0
0.00118401422626 -0.10640770379 0
-0.0010759451845 -0.106554079743 0
0.00106323844026 -0.106561361994 0
-0.000369782460766 -0.0987210412776 0
-0.00124192691545 -0.105457880101 0
0.000403479514131 -0.101168494733 0
0.00126736166393 -0.106554281917 0
0.000713092646255 -0.102938150928 0
-0.000230009361819 -0.100767387892 0
0.00131717517721 -0.106157466616 0
-0.00125350324829 -0.1066349198 0
0.00124191731753 -0.106642452689 0
0.000342798406149 -0.105381826511 0
0.000962854397825 -0.104887467844 0
1.2278832482e-05 -0.103674029416 0
-0.00112679889289 -0.10617085102 0
0.00111443739348 -0.106176677553 0
-0.000814518355253 -0.105389339514 0
-0.000104632282442 -0.100704581961 0
0.000784755090731 -0.105405046612 0
0.000580925501795 -0.102124538567 0
0.000318955307726 -0.0983254404801 0
-0.001178121716 -0.104854427085 0
-2.68083526347e-05 -0.103689259809 0
-0.000555330834356 -0.105381956224 0
0.000539809909134 -0.105386380689 0
0.00073772551069 -0.105412686428 0
-0.000877395408547 -0.104585040037 0
-0.000340212289149 -0.107735207234 0
-0.0008881946701 -0.106386331208 0
0.000874605120557 -0.106393205659 0
0.000381775918161 -0.0989261918937 0
6.26985313961e-05 -0.105035524463 0
-8.01368357093e-05 -0.105039909457 0
-0.00029993757022 -0.101584635014 0
-0.000340668686503 -0.101058911281 0
-0.000268492489631 -0.107481070031 0
-0.000603973554723 -0.104515718782 0
-0.000515907237159 -0.104815287328 0
0.00121748482741 -0.105388357178 0
0.000247797756363 -0.104414057809 0
0.000588656673688 -0.104541704484 0
0.00030071813018 -0.101534767931 0
0.00143451140451 -0.106552428721 0
-0.00144369933282 -0.106546622713 0
-0.000839356161995 -0.103954769866 0
-0.000935713583823 -0.105956868579 0