# vtk DataFile Version 2.0
Generated with Solid Solver
ASCII
DATASET UNSTRUCTURED_GRID
POINTS 999 float 
0.2 4.325 0.0
1.4 4.325 0.0
1.4 4.825 0.0
0.2 4.825 0.0
1.4 4.34523264049 0.0
1.4 4.36751203886 0.0
1.4 4.39204525371 0.0
1.4 4.4190602782 0.0
1.4 4.44880817466 0.0
1.4 4.48156541084 0.0
1.4 4.51763640748 0.0
1.4 4.5573564007 0.0
1.4 4.60109451608 0.0
1.4 4.64925723872 0.0
1.4 4.70229217343 0.0
1.4 4.76069218095 0.0
1.33333333333 4.825 0.0
1.26666666667 4.825 0.0
1.2 4.825 0.0
1.13333333333 4.825 0.0
1.06666666667 4.825 0.0
1.0 4.825 0.0
0.933333333334 4.825 0.0
0.866666666668 4.825 0.0
0.800000000001 4.825 0.0
0.733333333334 4.825 0.0
0.666666666668 4.825 0.0
0.600000000001 4.825 0.0
0.533333333334 4.825 0.0
0.466666666667 4.825 0.0
0.4 4.825 0.0
0.333333333334 4.825 0.0
0.266666666667 4.825 0.0
0.2 4.76069218095 0.0
0.2 4.70229217343 0.0
0.2 4.64925723872 0.0
0.2 4.60109451608 0.0
0.2 4.5573564007 0.0
0.2 4.51763640748 0.0
0.2 4.48156541084 0.0
0.2 4.44880817466 0.0
0.2 4.4190602782 0.0
0.2 4.39204525371 0.0
0.2 4.36751203886 0.0
0.2 4.34523264049 0.0
0.212131543907 4.30926329506 0.0
0.224675715302 4.29385348652 0.0
0.23762369102 4.27878141198 0.0
0.250966423879 4.26405760374 0.0
0.264694484585 4.24969246611 0.0
0.278798324214 4.23569599189 0.0
0.293267939266 4.22207810803 0.0
0.308093289028 4.20884826442 0.0
0.323263842145 4.19601585877 0.0
0.338769084145 4.18358978512 0.0
0.354597997314 4.17157887342 0.0
0.37073960121 4.15999145532 0.0
0.387182441982 4.14883575334 0.0
0.403915091795 4.13811952025 0.0
0.420925712897 4.12785033813 0.0
0.438202430937 4.11803537461 0.0
0.455733079095 4.10868154223 0.0
0.473505374364 4.09979539439 0.0
0.491506842655 4.09138316882 0.0
0.509724826085 4.0834507802 0.0
0.528146580414 4.07600377808 0.0
0.546759103951 4.06904741762 0.0
0.56554943677 4.06258654322 0.0
0.584504260001 4.05662573401 0.0
0.60361041518 4.0511691282 0.0
0.622854334779 4.04622060039 0.0
0.642222678753 4.04178358113 0.0
0.661701681839 4.03786122392 0.0
0.681277836375 4.03445624851 0.0
0.700937245817 4.03157107217 0.0
0.720666255912 4.02920769845 0.0
0.740450894784 4.02736780161 0.0
0.76027736978 4.02605266363 0.0
0.780131702711 4.02526321235 0.0
0.799999999998 4.025 0.0
0.819868297285 4.02526321235 0.0
0.839722630216 4.02605266363 0.0
0.859549105212 4.02736780161 0.0
0.879333744085 4.02920769845 0.0
0.89906275418 4.03157107217 0.0
0.918722163621 4.03445624851 0.0
0.938298318157 4.03786122392 0.0
0.957777321244 4.04178358113 0.0
0.977145665218 4.04622060039 0.0
0.996389584817 4.0511691282 0.0
1.01549574 4.05662573401 0.0
1.03445056323 4.06258654322 0.0
1.05324089605 4.06904741762 0.0
1.07185341958 4.07600377808 0.0
1.09027517391 4.0834507802 0.0
1.10849315734 4.09138316882 0.0
1.12649462563 4.09979539439 0.0
1.1442669209 4.10868154222 0.0
1.16179756906 4.1180353746 0.0
1.1790742871 4.12785033813 0.0
1.1960849082 4.13811952024 0.0
1.21281755802 4.14883575334 0.0
1.22926039879 4.15999145532 0.0
1.24540200269 4.17157887342 0.0
1.26123091585 4.18358978512 0.0
1.27673615785 4.19601585877 0.0
1.29190671097 4.20884826442 0.0
1.30673206073 4.22207810803 0.0
1.32120167579 4.23569599189 0.0
1.33530551541 4.24969246611 0.0
1.34903357612 4.26405760374 0.0
1.36237630898 4.27878141198 0.0
1.3753242847 4.29385348652 0.0
1.38786845609 4.30926329506 0.0
1.05632730172 4.46025283906 0.0
0.549964048968 4.4630053958 0.0
0.806135520676 4.31186690218 0.0
0.603895783049 4.26079310371 0.0
1.22984770884 4.38318704125 0.0
0.3703382852 4.38423552752 0.0
0.995322815839 4.25565031136 0.0
0.728315816804 4.1765935937 0.0
0.872128173905 4.17288724072 0.0
1.14059401893 4.27298468684 0.0
0.461553191009 4.27181671009 0.0
0.784706775856 4.56821390922 0.0
0.398287125272 4.57945970538 0.0
1.20625306554 4.58334743514 0.0
0.624100842742 4.1589824436 0.0
0.5257453845 4.18811776279 0.0
0.978502430793 4.15488737058 0.0
1.07419209812 4.18825154482 0.0
0.364313698077 4.28677035763 0.0
1.23509538257 4.28681716733 0.0
0.68124123937 4.39284548972 0.0
1.31679378691 4.35012066749 0.0
0.283206213094 4.35012066749 0.0
0.791498533126 4.11467141721 0.0
0.931481076052 4.3801344917 0.0
0.966719065571 4.62778042839 0.0
0.684451667517 4.11068036752 0.0
0.618335406951 4.62686910993 0.0
0.450982331762 4.19686171732 0.0
0.915674266355 4.10995633851 0.0
1.14900051594 4.19689012964 0.0
1.30193709687 4.4481448133 0.0
0.298574667609 4.44816296922 0.0
1.05734787542 4.34990107617 0.0
0.539273225177 4.35252599628 0.0
0.709896798149 4.27721026287 0.0
0.895708916005 4.26924194389 0.0
0.813273511364 4.43835766235 0.0
0.559289631452 4.13230879113 0.0
1.04001407307 4.13281539633 0.0
0.801161810585 4.23146244955 0.0
0.665113819616 4.52056650186 0.0
0.852577362173 4.09111846388 0.0
0.390256727869 4.2242806298 0.0
1.20974450479 4.22428104599 0.0
0.921542541183 4.52778058719 0.0
1.14030889032 4.36437344809 0.0
1.15600477272 4.46808538305 0.0
0.435243219029 4.4750581257 0.0
0.462045157798 4.36654654286 0.0
0.735806812738 4.08472269746 0.0
1.30082934537 4.29793772796 0.0
0.299170654625 4.29793772796 0.0
0.533651712118 4.26265983853 0.0
0.666130919144 4.21652131559 0.0
1.0676097303 4.26179469382 0.0
1.08054433577 4.58530946155 0.0
0.506773767255 4.56568295079 0.0
0.626745312844 4.10124420826 0.0
0.933845304214 4.2106954732 0.0
0.293717639664 4.55175000185 0.0
0.312505022079 4.66426411351 0.0
1.3058164124 4.55154930624 0.0
1.29054387065 4.66302765963 0.0
0.973467966326 4.09941619478 0.0
0.487935413164 4.15087084015 0.0
0.461549079751 4.68836834982 0.0
1.11203248746 4.15093503889 0.0
1.14453515393 4.70617370303 0.0
0.840217564202 4.68891146633 0.0
0.585347033288 4.20539048534 0.0
0.619177396637 4.34227576306 0.0
0.331644410315 4.24962190462 0.0
1.26835558968 4.24962190462 0.0
1.01536156978 4.19987473052 0.0
0.809331033562 4.07065709122 0.0
0.982321540791 4.33437358971 0.0
0.725600576914 4.66999651799 0.0
0.812291456186 4.16642942492 0.0
0.335887692543 4.33918235669 0.0
1.26344844681 4.34017131907 0.0
1.23449730504 4.49457441524 0.0
1.34334172095 4.40539551957 0.0
0.256658279045 4.40539551957 0.0
0.741646926828 4.34287908527 0.0
0.674799084703 4.16673768522 0.0
1.18647435526 4.30955189749 0.0
0.360563250283 4.49596479569 0.0
0.873716483853 4.33845499203 0.0
0.418704489949 4.31146264283 0.0
0.492670911224 4.22931614809 0.0
0.403480880356 4.19046776931 0.0
1.19651541215 4.1904686246 0.0
0.728649253738 4.46214546491 0.0
1.00883674467 4.40174664879 0.0
1.11035034557 4.23161841276 0.0
0.261968539765 4.3130079512 0.0
1.33803146023 4.3130079512 0.0
0.74649980488 4.1318354354 0.0
0.927597725248 4.1577597079 0.0
0.892956618256 4.07619338913 0.0
0.659794281787 4.07951387326 0.0
0.587663534405 4.09486537006 0.0
0.942353209926 4.07935300973 0.0
1.01493747319 4.09476013719 0.0
0.613130017774 4.41369803882 0.0
0.449373501074 4.15377191978 0.0
0.514840228377 4.12225850006 0.0
0.497057592 4.41333092106 0.0
1.15061382426 4.15379293084 0.0
1.08514419473 4.12228328152 0.0
0.745617635771 4.23098957592 0.0
0.87523452213 4.59853036549 0.0
0.855262884783 4.2258970831 0.0
1.01126200032 4.53280064162 0.0
1.09391916408 4.40632408872 0.0
1.04436265455 4.71482000827 0.0
0.314320181089 4.38773968607 0.0
1.28649331902 4.38743720145 0.0
0.771211579291 4.06316862024 0.0
0.432259099658 4.24006002157 0.0
0.698583889427 4.07144353526 0.0
1.16802128371 4.238862881 0.0
1.09587629216 4.3086676659 0.0
1.35920470355 4.35666960471 0.0
0.240795296449 4.35666960471 0.0
0.504003580654 4.30815758118 0.0
0.579942709371 4.5342075073 0.0
0.875915224914 4.12815792528 0.0
0.426503136644 4.40717733008 0.0
0.57541416445 4.30365301522 0.0
0.683877978289 4.33161848113 0.0
0.888061695889 4.44633509246 0.0
0.26012287522 4.49859249103 0.0
1.33987712478 4.49859249103 0.0
0.801393572636 4.37060096582 0.0
0.558460082533 4.72496728209 0.0
1.1741923373 4.41132830101 0.0
0.83220012886 4.12779415912 0.0
1.02815069622 4.30053276509 0.0
0.948308583502 4.2880204454 0.0
0.846588933095 4.50834596945 0.0
0.343666800815 4.43485820652 0.0
1.25632767671 4.43480360053 0.0
0.97849585731 4.47031535602 0.0
1.10170977548 4.51507265998 0.0
0.662193131828 4.26809398492 0.0
0.400503668388 4.26881657105 0.0
1.20117145985 4.26130427377 0.0
0.350957892513 4.21796558019 0.0
1.24904210749 4.21796558019 0.0
0.771964652188 4.18905379403 0.0
0.932165148285 4.72736281402 0.0
0.373672364094 4.73321357765 0.0
0.760245937722 4.28409350779 0.0
0.848718469252 4.05767763075 0.0
1.23385612561 4.7358294747 0.0
0.846421485813 4.28065918421 0.0
0.651597058631 4.13043284014 0.0
0.650489852552 4.72138045504 0.0
0.58457834847 4.16375088261 0.0
0.48701309933 4.18859927013 0.0
0.708495738406 4.58856947756 0.0
1.11203398596 4.18878062515 0.0
0.54865558244 4.10250047869 0.0
1.05126102377 4.10234629471 0.0
0.300013757486 4.26259646442 0.0
1.29998624251 4.26259646442 0.0
0.9465032388 4.12718070354 0.0
0.708587583337 4.14146095907 0.0
0.973348904468 4.19537871864 0.0
0.628721855632 4.19538356945 0.0
0.380175010018 4.34021880077 0.0
0.662092932411 4.45899041267 0.0
1.05133526787 4.22221992007 0.0
0.528087045766 4.64327882187 0.0
1.22233124543 4.33521693908 0.0
1.19001193434 4.36273586668 0.0
0.853024099244 4.39544003492 0.0
0.542800296246 4.22324366905 0.0
0.247706318737 4.45239119247 0.0
1.35229368126 4.45239119247 0.0
0.599153768578 4.12953797005 0.0
1.01616570494 4.16227683178 0.0
0.744705786938 4.40569544575 0.0
1.31929001115 4.73702550052 0.0
0.777615355331 4.15113602511 0.0
1.33132411895 4.60631378639 0.0
0.265621610877 4.60975488866 0.0
0.532023338888 4.15374454388 0.0
1.0697792195 4.15241429251 0.0
0.286371037106 4.73010312914 0.0
0.497725885905 4.50153668256 0.0
0.46053455822 4.31587947599 0.0
0.433799237968 4.54629400991 0.0
0.388624781906 4.65094200004 0.0
0.554823673752 4.40451940232 0.0
1.1421595646 4.31818301431 0.0
1.14760043966 4.61655103139 0.0
1.21258698805 4.65320200685 0.0
1.16279096046 4.53292621409 0.0
0.995762647814 4.12508772517 0.0
0.456229040627 4.61456685246 0.0
0.707289391156 4.21520271873 0.0
0.763036833302 4.74285445535 0.0
0.78386198569 4.49787013126 0.0
[...]
POINT_DATA 999
VECTORS Displacement float
-0.00180916837578 -0.141859311115 0
0.00179624039708 -0.141868170891 0
0.0 -0.144 0
0.0 -0.144 0
0.00192270671123 -0.14185800773 0
0.00204539923694 -0.141843488239 0
0.00215537059549 -0.141825382877 0
0.0022478230995 -0.141814427499 0
0.00230150415146 -0.141816545628 0
0.00233203608193 -0.141837976695 0
0.00230398887739 -0.14188414842 0
0.00221207240058 -0.141961370624 0
0.00204649701303 -0.142095119631 0
0.00177620681984 -0.142301553972 0
0.00138871656839 -0.142621505536 0
0.000835418037587 -0.143119195584 0
0.0 -0.144 0
0.0 -0.144 0
0.0 -0.144 0
0.0 -0.144 0
0.0 -0.144 0
0.0 -0.144 0
0.0 -0.144 0
0.0 -0.144 0
0.0 -0.144 0
0.0 -0.144 0
0.0 -0.144 0
0.0 -0.144 0
0.0 -0.144 0
0.0 -0.144 0
0.0 -0.144 0
0.0 -0.144 0
0.0 -0.144 0
-0.000831171467358 -0.143122393539 0
-0.00138519967293 -0.14262386504 0
-0.00179034929102 -0.142300512201 0
-0.00205300247177 -0.142089650762 0
-0.00221777867567 -0.141953928227 0
-0.00231179174096 -0.141875782656 0
-0.00234107986684 -0.141829874336 0
-0.00231129648512 -0.141808375306 0
-0.00225829143161 -0.141806091914 0
-0.00216650980857 -0.141816845316 0
-0.00205719761092 -0.14183478185 0
-0.00193511483756 -0.141849194611 0
-0.00170546186715 -0.141792881009 0
-0.00159151087666 -0.141719703447 0
-0.00146813317693 -0.14163483324 0
-0.00133309791808 -0.141538272778 0
-0.00118736876727 -0.141426072916 0
-0.00103482989796 -0.141295569865 0
-0.000873940999556 -0.141148800212 0
-0.000698778631289 -0.140983901092 0
-0.000512510653354 -0.140788838641 0
-0.000323234379517 -0.140578538576 0
-0.000122663585655 -0.140339239251 0
9.44336636011e-05 -0.140070805381 0
0.000316702132627 -0.139763679492 0
0.000553127998336 -0.139420102675 0
0.000801188017408 -0.1390319209 0
0.00107308164625 -0.1385809404 0
0.00135201217239 -0.138051356438 0
0.00167468676194 -0.137377255083 0
0.00197354761554 -0.136567760144 0
0.00222269664886 -0.135696434833 0
0.00239035236222 -0.134864392018 0
0.00248308898215 -0.134057123629 0
0.00252014995873 -0.13330592905 0
0.0024987493506 -0.132589730254 0
0.00243236786007 -0.131932162148 0
0.00231210965532 -0.131321794897 0
0.00215959981247 -0.130773036499 0
0.00196684409021 -0.130281589193 0
0.00175288153304 -0.129858839501 0
0.00150301831577 -0.129488794675 0
0.00123569944539 -0.129189120106 0
0.000940859473978 -0.128946752743 0
0.000638971702648 -0.128768977334 0
0.000324106031069 -0.128654927424 0
-2.59911913579e-05 -0.128597811836 0
-0.00035618497125 -0.128659877231 0
-0.000672500978863 -0.128773080364 0
-0.000974471054764 -0.128945794793 0
-0.00126104567164 -0.129187171063 0
-0.00152885620603 -0.12949094694 0
-0.00177881327004 -0.129860193267 0
-0.00200224689454 -0.130294388322 0
-0.00218371334571 -0.130777603354 0
-0.00233451256241 -0.131324720452 0
-0.00245431887119 -0.131933914068 0
-0.00252144108764 -0.132591278009 0
-0.00254300174524 -0.133307167782 0
-0.002506850161 -0.134060947591 0
-0.00241274310878 -0.134868237988 0
-0.00224432398441 -0.135700480458 0
-0.00199412479093 -0.136572780448 0
-0.00169469626375 -0.137382369583 0
-0.00137190600403 -0.138056092785 0
-0.00109286861824 -0.138585770397 0
-0.000820675519572 -0.139037129578 0
-0.000572168769569 -0.139425729158 0
-0.000335242346557 -0.139769669386 0
-0.000112480151566 -0.1400771563 0
0.000105141833907 -0.140345943853 0
0.000306251770592 -0.140585554453 0
0.000496071439175 -0.140796119217 0
0.00068282793169 -0.140991379661 0
0.000858424879986 -0.141156413393 0
0.00101970437978 -0.141303324407 0
0.00117263650914 -0.141433973042 0
0.00131872088433 -0.141546308444 0
0.00145409882176 -0.141643031178 0
0.00157782613917 -0.141728093535 0
0.0016921448854 -0.141801489805 0
0.00163579657196 -0.139561234632 0
-0.00161000362665 -0.139540510685 0
3.26283435351e-05 -0.135035962806 0
-0.000988847156285 -0.135654937218 0
0.00205945797321 -0.140641429407 0
-0.00207107507996 -0.140639323091 0
0.000943020746679 -0.135548212544 0
-7.90747583995e-05 -0.132194786941 0
3.96911668013e-05 -0.132119190896 0
0.00142174609327 -0.138667336169 0
-0.00142560250824 -0.138610092307 0
-9.42907502403e-05 -0.140178770791 0
-0.00180528492161 -0.141870046535 0
0.00179055035826 -0.141926153283 0
3.69461881395e-05 -0.133342556637 0
-0.000478438210454 -0.136295869182 0
-0.000117704783976 -0.133327693773 0
0.000464763551592 -0.136295483979 0
-0.00155123289059 -0.140320925158 0
0.00153702213465 -0.140317974697 0
-0.000876373501347 -0.137237052848 0
0.00195608585373 -0.141324624388 0
-0.00196804666425 -0.141317497988 0
2.8109703548e-05 -0.130487285998 0
0.00094609978212 -0.137090662 0
0.000819746422647 -0.141448509291 0
0.000561742479551 -0.131271292526 0
-0.000895176553611 -0.141481453093 0
-0.000599552323106 -0.138391361908 0
-0.00059414585082 -0.131259253461 0
0.000584273429375 -0.138396235538 0
0.00224895240338 -0.141491821827 0
-0.00225740406103 -0.141483901035 0
0.00158484150179 -0.138058882378 0
-0.00161528211009 -0.138140390477 0
-0.000532015439391 -0.13461599833 0
0.000524580936865 -0.134492834336 0
9.68711002055e-05 -0.137741396128 0
0.000549102577774 -0.134529759698 0
-0.00055726189629 -0.134518234651 0
-4.27541411404e-06 -0.133183547098 0
-0.000897488791649 -0.13964343948 0
-0.000394416334776 -0.130158526416 0
-0.000924832601715 -0.139766866973 0
0.000908761247272 -0.139773500363 0
0.000797927052695 -0.139707566638 0
0.0018728426116 -0.13942541736 0
0.00198229209362 -0.140569630509 0
-0.00201240142671 -0.140703805473 0
-0.0018825188398 -0.139406141536 0
0.0005003574905 -0.130114407576 0
0.00161325692351 -0.141116649166 0
-0.00162677443137 -0.141109449155 0
-0.00124165870256 -0.137041939214 0
-0.00046221126078 -0.133787151656 0
0.00122214924511 -0.137059155309 0
0.0014234095289 -0.1413454834 0
-0.00154600062572 -0.141174925383 0
0.00100918844983 -0.132179508216 0
0.000403532444111 -0.133665209939 0
-0.00212050346882 -0.141992674464 0
-0.00147171694201 -0.142732058145 0
0.00211587637899 -0.14199651415 0
0.00148597359304 -0.142725674914 0
-0.00106570344493 -0.13215543935 0
0.000175304209131 -0.137085571748 0
-0.00105376419239 -0.142699701634 0
-0.000193416543699 -0.137089202404 0
0.00094960169408 -0.14289563605 0
0.000158909023898 -0.142147946608 0
-0.000600479679573 -0.135049547754 0
-0.00121577839558 -0.136891393356 0
-0.00118777019923 -0.140695129588 0
0.00117287325087 -0.140702128889 0
0.000521751714934 -0.13497241595 0
-0.000106082533821 -0.129530583274 0
0.00119186047249 -0.136775134372 0
-0.000323216446892 -0.141892269226 0
-9.17551115097e-06 -0.131676605519 0
-0.00190681277586 -0.140814522905 0
0.00189934752661 -0.140816744473 0
0.00213039782329 -0.141367486507 0
0.00219393944145 -0.141585400853 0
-0.00220450948001 -0.141578389431 0
-0.000423002203132 -0.135852608386 0
-4.06810602681e-05 -0.132596770776 0
0.00169903417573 -0.139694938259 0
-0.00214991778637 -0.141400374363 0
0.000515268340432 -0.135836048383 0
-0.0017210543204 -0.139622903793 0
-0.00102325045128 -0.137585364178 0
-0.000453121744361 -0.139457362588 0
0.00043595472168 -0.139462629804 0
-0.000522269755608 -0.13833326621 0
0.00142243505363 -0.138218793239 0
0.0010322730625 -0.137683470382 0
-0.00173470736216 -0.141448345056 0
0.00172146581676 -0.141455985779 0
0.000143593904479 -0.13104963594 0
-6.65105594355e-05 -0.132442358446 0
-0.000856503959619 -0.130252162691 0
0.00119745130242 -0.131068870796 0
0.00137434731836 -0.133078969567 0
-0.00123927348932 -0.131115450458 0
-0.00141173688668 -0.133157387803 0
-0.00131095117495 -0.138193961908 0
0.000167917518351 -0.138294055757 0
0.000854097207425 -0.135886689807 0
-0.00184980642613 -0.139452125391 0
-0.000186619070562 -0.138298365879 0
-0.000873448807626 -0.135890716533 0
-0.000232674395735 -0.133325515603 0
0.000425448262948 -0.140760115244 0
0.000206429440194 -0.133214413777 0
0.00128314752449 -0.140257011619 0
0.00180217017313 -0.139266786077 0
0.000711589796367 -0.142793190409 0
-0.00212304509722 -0.141164182127 0
0.00211187690459 -0.141175756337 0
0.000293409503417 -0.129431311275 0
-0.00113735339971 -0.139008280166 0
0.000972302855206 -0.130268864139 0
0.00110758875387 -0.139012884937 0
0.0015671375457 -0.138162986368 0
0.00199402930096 -0.141620687659 0
-0.0020060421936 -0.141612871036 0
-0.00157844826046 -0.138157492971 0
-0.00132640486273 -0.140331229062 0
-0.000254201421395 -0.131152665114 0
-0.0020370926311 -0.140195617788 0
-0.00131995433848 -0.136861961983 0
-0.000803447057554 -0.135996385452 0
0.000645485992944 -0.138091855359 0
-0.00228565552445 -0.141807983598 0
0.00227619715821 -0.141814699445 0
5.22677139797e-06 -0.136326484171 0
-0.000649915793888 -0.142901497096 0
0.00202988083485 -0.140243987205 0
-0.000117382646192 -0.130840389857 0
0.00130845856378 -0.136872982541 0
0.000870384115694 -0.135459546487 0
0.000323546689456 -0.139135470129 0
-0.00219676932402 -0.141138729768 0
0.00218759313157 -0.141143335805 0
0.00121675844197 -0.139067001822 0
0.00172034248054 -0.140631061085 0
-0.000755152651512 -0.134920092636 0
-0.00140693580593 -0.139711455492 0
0.00132194404596 -0.13971982007 0
-0.000820278660207 -0.140404955518 0
0.000804481698896 -0.140411692616 0
-5.99797719358e-05 -0.132235620635 0
0.000380713229398 -0.142780720697 0
-0.000835225239825 -0.143256494584 0
-0.000247745368662 -0.134478004379 0
-0.000576988744448 -0.129441100139 0
0.000815415096164 -0.143284894118 0
0.000267409538826 -0.134426441503 0
0.000412943147362 -0.132226346687 0
-0.000448809960863 -0.142724252414 0
-5.07057316326e-05 -0.134346852058 0
-0.000500400657057 -0.137388632836 0
-0.000528777826097 -0.140633526897 0
0.00048958052282 -0.137367920877 0
0.0013573609293 -0.13443115072 0
-0.00138119338589 -0.134429681457 0
-0.00131550339041 -0.141078467715 0
0.001301069505 -0.141085816852 0
-0.000478872470615 -0.13213364654 0
0.00016673339453 -0.131610130375 0
0.000376373959314 -0.134010647037 0
-0.000389322794576 -0.133967977752 0
-0.00189473724096 -0.140310136157 0
-0.000981642512217 -0.138594695352 0
0.00084421062028 -0.136156883163 0
-0.00115146026433 -0.142006471747 0
0.00185954853937 -0.140322805036 0
0.00194939716855 -0.140066796366 0
0.000393220062984 -0.136944042169 0
-0.000885697667398 -0.136313388644 0
-0.00230192077945 -0.141706936604 0
0.00229226572522 -0.141713641183 0
0.000545191993609 -0.1333716016 0
8.22073271688e-06 -0.134341038314 0
-0.000419623008031 -0.137160444064 0
0.000885607395472 -0.143272230363 0
1.34475506798e-05 -0.131339405479 0
0.00191971981466 -0.142309460381 0
-0.00191199412503 -0.142324689164 0
0.000105972863769 -0.135679383855 0
-0.000150914420542 -0.135723664231 0
-0.000938131950246 -0.143225923104 0
-0.0017620577466 -0.140473895941 0
-0.00169943006418 -0.138979669702 0
-0.00184790536687 -0.141390842532 0
-0.00143283309228 -0.142528478733 0
-0.00161289811313 -0.138668308162 0
0.00170295030846 -0.13904802756 0
0.00149005134618 -0.142002116924 0
0.00141770656443 -0.142551915192 0
0.00187431844761 -0.141242369045 0
-0.000640877524525 -0.133159026111 0
-0.00149196053564 -0.141964565738 0
-0.000317730696278 -0.133264637561 0
-9.83369072471e-05 -0.142927078665 0
-0.000115630218724 -0.138906032724 0
0.000849851526155 -0.136114453678 0
3.31508429488e-05 -0.139059658298 0
0.000273780775334 -0.133159195219 0
-5.12741708406e-05 -0.139064809844 0
0.00221347598046 -0.141648924182 0
0.000725989211838 -0.129642556635 0
-0.00151822307578 -0.140770390085 0
0.00150431307114 -0.140777189019 0
-0.000499856354872 -0.140035541233 0
0.000483033991666 -0.140041816729 0
-0.00129387342083 -0.139264805098 0
-0.00198290342129 -0.140084567217 0
0.000221161845283 -0.130106979054 0
-0.00056677787432 -0.139729712518 0
-0.00123528185273 -0.140232013839 0
0.00122063249121 -0.140237127489 0
-0.00221884066766 -0.141619304595 0
0.00211757604319 -0.14087531354 0
0.000703329086513 -0.134685640022 0
-0.00151122535034 -0.141354573416 0
0.00149731131344 -0.141362217154 0
0.00104857710558 -0.14226865954 0
-0.00211784658152 -0.140861398236 0
-0.00185713972809 -0.14163882454 0
0.00184440754337 -0.141646884336 0
0.00154924022395 -0.131896944468 0
8.25899223755e-05 -0.132486943026 0
0.0018213476322 -0.142250512945 0
-0.00183235264098 -0.14224572208 0
-0.00132654862954 -0.137832600074 0
0.000453433805788 -0.13082342492 0
7.55701252018e-06 -0.133908117236 0
-0.000151815498618 -0.130168870374 0
0.00174771617563 -0.138759097118 0
0.00132171331301 -0.137869550734 0
-0.00104071499195 -0.135966401626 0
-0.00125333431136 -0.130318694006 0
-0.00153575430444 -0.131925593399 0
0.00184636852376 -0.140121192731 0
-0.0018733606328 -0.141110886605 0
0.00186123330914 -0.14111713457 0
0.000859328910997 -0.140528453098 0
-0.00176340619514 -0.138773285238 0
-0.00104968898622 -0.136051384646 0
0.000220566588911 -0.135232550314 0
-0.000946722485151 -0.14051638597 0
-9.14172297047e-05 -0.141485796967 0
0.000666688684758 -0.137334154386 0
-0.000685595738255 -0.137338279588 0
-0.00105682706814 -0.138342636763 0
0.000993594783876 -0.138342205661 0
-0.0022105333187 -0.141979809447 0
0.00220412315565 -0.141985328209 0
-0.000767845580128 -0.134893082688 0
0.00105805356015 -0.136172200271 0
-0.000342137145548 -0.135412125136 0
0.00113041729609 -0.141285257239 0
-0.000851796860448 -0.129682235821 0
0.000997359986593 -0.138188944148 0
0.00211976333807 -0.141687891459 0
-0.00213105300869 -0.141680059098 0
-0.000699747082823 -0.139056598263 0
-0.000515027031218 -0.130627374322 0
0.000683205632321 -0.139061321086 0
-0.000528605695251 -0.134077669106 0
0.00047087721627 -0.141802054046 0
0.000547221298862 -0.143331128046 0
0.00162830715041 -0.138672017582 0
-0.00145657350122 -0.137744057469 0
0.00212036554673 -0.141384210351 0
-0.0021311865717 -0.141377689856 0
0.00202082336619 -0.141807946556 0
-0.00203543353226 -0.141783712163 0
-0.000240250693557 -0.131710012421 0
0.00151721638814 -0.139287688334 0
0.00138573895853 -0.130397343226 0
6.04911839598e-05 -0.12909382564 0
-3.50836305771e-05 -0.131576163215 0
-0.00196822689995 -0.140116473325 0
-0.00151857754237 -0.139376305719 0
-0.000909754596223 -0.140731409701 0
0.000894243439502 -0.140738509569 0
0.000239669446858 -0.135919964966 0
0.00046885912227 -0.133893947762 0
-0.000337833943064 -0.129238839458 0
0.00148133634802 -0.142744717428 0
-0.00176293283621 -0.140639611799 0
0.00174090263558 -0.140647221488 0
0.00136203497491 -0.13743076639 0
-0.0016035162186 -0.142634291101 0
-0.00051632492554 -0.14337216971 0
0.00193466577121 -0.139729024279 0
-0.0012411241641 -0.141384209655 0
-0.000124504852282 -0.133188340618 0
0.00120481440273 -0.13735924829 0
0.00141834477002 -0.137431910565 0
0.000651345060369 -0.134804077992 0
0.00110929928228 -0.13613725593 0
-0.00112987199619 -0.137361999214 0
-0.00201484283285 -0.141248368549 0
0.000819446415187 -0.131690656313 0
0.000498212164212 -0.132840429941 0
-0.00200658568288 -0.141092855319 0
0.00199440976667 -0.141107281513 0
-0.00108218589066 -0.140970526925 0
0.00106707514118 -0.140977878082 0
9.87342860628e-05 -0.132546535527 0
0.00160862515702 -0.139996359891 0
0.00154412257705 -0.140270370227 0
0.000112870781476 -0.133205958567 0
-0.00144524089577 -0.137462359973 0
-0.000440989895506 -0.135001544439 0
-0.00174708016791 -0.140101166106 0
-0.00188608905267 -0.141489043191 0
0.00187350343372 -0.141496671847 0
0.00016359450988 -0.143045333645 0
-0.00014794631167 -0.136491292712 0
-0.00016038828808 -0.137719977173 0
-0.00193954112696 -0.139714301785 0
0.000477590526966 -0.134984404018 0
-0.000875544357261 -0.131684846359 0
-0.00180509230033 -0.139876419056 0
0.00083087538169 -0.136792837658 0
0.000558248536241 -0.143456974309 0
0.00178429030145 -0.133711457955 0
0.000147504715556 -0.13772746804 0
-0.000556526477515 -0.141693238438 0
1.8914753806e-05 -0.131570675889 0
0.000186415670779 -0.136572972501 0
-0.00014943847762 -0.133748779111 0
0.00153951234452 -0.135162437823 0
-0.00184281650052 -0.133720487436 0
-0.000818721266495 -0.136797407562 0
-0.00156051361101 -0.135165145971 0
-1.65282006044e-05 -0.131053392006 0
0.000149836185552 -0.13370733128 0
9.90002279992e-05 -0.129763081164 0
0.00225217050321 -0.141710192061 0
-0.00226241769585 -0.141702803589 0
0.00188208681597 -0.132350673148 0
0.00172343541168 -0.131263242222 0
-0.000186057266661 -0.143270317001 0
-0.00173316226892 -0.131261945221 0
-0.00189751100752 -0.132382950911 0
0.00116435342207 -0.136777671996 0
0.000727787727769 -0.138035019232 0
-0.000166725019833 -0.132681378219 0
-0.00118374625623 -0.136782186769 0
-0.000747157282476 -0.138039376562 0
0.00205264885252 -0.141059604226 0
0.00094479510106 -0.141978639819 0
-0.000153058239905 -0.135717745492 0
0.000616081233604 -0.129227485543 0
-0.000895400413046 -0.130732799085 0
0.00107213128876 -0.129660234765 0
0.000257305172582 -0.131905350327 0
0.00195950199907 -0.140599904092 0
0.00211470641195 -0.14154351222 0
-0.00212590386673 -0.141536273912 0
-0.00156270716933 -0.140227060634 0
0.00220131963382 -0.141370126188 0
-0.00221139725998 -0.141364058252 0
0.000237035766878 -0.140071932876 0
-0.000828543259316 -0.135320415026 0
0.000340980732007 -0.143262963101 0
-0.00032557685611 -0.129795585552 0
0.000621606681122 -0.136767262728 0
-0.000100433828336 -0.139714344173 0
8.26444225322e-05 -0.139720239842 0
-0.00205222069675 -0.140882276176 0
0.000720798215532 -0.135322270399 0
-0.000785313360058 -0.133755889077 0
-0.000251472149434 -0.13407722685 0
0.00164191415321 -0.14146210152 0
-0.000151500920299 -0.132648482633 0
-0.000750110238347 -0.135271188548 0
0.000911032286849 -0.13083300549 0
4.58658052123e-06 -0.132344345969 0
-0.00211623820647 -0.140656218219 0
-0.000691055619833 -0.13766477688 0
-0.000229448347132 -0.130794436106 0
-0.000237185513173 -0.13792373837 0
-0.000700500388738 -0.136450814704 0
0.000811198629093 -0.13502744642 0
-0.000330838961415 -0.13892799374 0
0.000313762528034 -0.138933044217 0
-0.000828857001802 -0.135029396725 0
0.000246625779984 -0.135166932555 0
0.000282399728706 -0.130493470899 0
0.000994330903662 -0.133944976472 0
0.00222107803113 -0.141405816231 0
-0.00222846983697 -0.141386478058 0
-0.000507855634064 -0.143500276269 0
0.00019999479216 -0.134101196271 0
0.00210397036158 -0.140648061494 0
0.000128444294464 -0.1305832679 0
-0.00119965961319 -0.129869862131 0
-0.00183279650471 -0.141307088258 0
0.00181984890464 -0.141314326453 0
-0.00162667738684 -0.141572974563 0
0.00161309136631 -0.141580983896 0
-0.000575458499348 -0.130162793255 0
-0.00187818014412 -0.139706331758 0
0.000918448611141 -0.132861818799 0
0.00198506757162 -0.141595935966 0
0.000835077761823 -0.13562630105 0
-0.000628535818868 -0.132491418999 0
0.00204078050402 -0.140889855802 0
-0.00193390551176 -0.141718332207 0
0.00192151657632 -0.141726603265 0
0.000511842349205 -0.139826550346 0
0.00142557329068 -0.138953983377 0
0.000317121452673 -0.136247188918 0
-0.00171170855844 -0.140901993858 0
0.00169854499404 -0.140908335801 0
-0.00116818242144 -0.139509013993 0
-9.87827277408e-05 -0.132886141762 0
0.00112775489973 -0.139532289847 0
0.000686770256874 -0.134735779625 0
0.000467093403045 -0.12968803098 0
-0.0017414886483 -0.138807333493 0
-0.000328982481479 -0.136273386499 0
-0.000730212064674 -0.139473479614 0
0.000713501914365 -0.139478368819 0
0.00110594309572 -0.139834560852 0
-0.00122930495276 -0.138146284497 0
-0.000540651901742 -0.143563785106 0
-0.00130242088299 -0.141274685682 0
0.00128794549767 -0.141282330045 0
0.000624392133222 -0.130395355127 0
0.000347571545302 -0.138797473037 0
-0.000366527958768 -0.138802278121 0
-0.00034226426298 -0.134087229296 0
-0.000252496605676 -0.133159532133 0
-0.000414215094148 -0.143159042328 0
-0.000779454779648 -0.137937067461 0
-0.000755105198399 -0.138925762429 0
0.00184054355092 -0.139586020039 0
0.000358601665706 -0.138325012189 0
0.000764713426428 -0.137979635747 0
0.00033926948697 -0.134009276763 0
0.00225263109992 -0.141577383099 0
-0.0022623942555 -0.141571060502 0
-0.00111110525525 -0.137127794749 0
-0.00138333049945 -0.140518135399 0
0.00136754633264 -0.140519384263 0
0.00153293126001 -0.138418411913 0
-0.00107152087027 -0.140442880786 0
0.00104673979652 -0.140442280135 0
-0.00231839983784 -0.14178505331 0