# vtk DataFile Version 2.0
Generated with Solid Solver
ASCII
DATASET UNSTRUCTURED_GRID
POINTS 999 float 
0.2 4.325 0.0
1.4 4.325 0.0
1.4 4.825 0.0
0.2 4.825 0.0
1.4 4.34523264049 0.0
1.4 4.36751203886 0.0
1.4 4.39204525371 0.0
1.4 4.4190602782 0.0
1.4 4.44880817466 0.0
1.4 4.48156541084 0.0
1.4 4.51763640748 0.0
1.4 4.5573564007 0.0
1.4 4.60109451608 0.0
1.4 4.64925723872 0.0
1.4 4.70229217343 0.0
1.4 4.76069218095 0.0
1.33333333333 4.825 0.0
1.26666666667 4.825 0.0
1.2 4.825 0.0
1.13333333333 4.825 0.0
1.06666666667 4.825 0.0
1.0 4.825 0.0
0.933333333334 4.825 0.0
0.866666666668 4.825 0.0
0.800000000001 4.825 0.0
0.733333333334 4.825 0.0
0.666666666668 4.825 0.0
0.600000000001 4.825 0.0
0.533333333334 4.825 0.0
0.466666666667 4.825 0.0
0.4 4.825 0.0
0.333333333334 4.825 0.0
0.266666666667 4.825 0.0
0.2 4.76069218095 0.0
0.2 4.70229217343 0.0
0.2 4.64925723872 0.0
0.2 4.60109451608 0.0
0.2 4.5573564007 0.0
0.2 4.51763640748 0.0
0.2 4.48156541084 0.0
0.2 4.44880817466 0.0
0.2 4.4190602782 0.0
0.2 4.39204525371 0.0
0.2 4.36751203886 0.0
0.2 4.34523264049 0.0
0.212131543907 4.30926329506 0.0
0.224675715302 4.29385348652 0.0
0.23762369102 4.27878141198 0.0
0.250966423879 4.26405760374 0.0
0.264694484585 4.24969246611 0.0
0.278798324214 4.23569599189 0.0
0.293267939266 4.22207810803 0.0
0.308093289028 4.20884826442 0.0
0.323263842145 4.19601585877 0.0
0.338769084145 4.18358978512 0.0
0.354597997314 4.17157887342 0.0
0.37073960121 4.15999145532 0.0
0.387182441982 4.14883575334 0.0
0.403915091795 4.13811952025 0.0
0.420925712897 4.12785033813 0.0
0.438202430937 4.11803537461 0.0
0.455733079095 4.10868154223 0.0
0.473505374364 4.09979539439 0.0
0.491506842655 4.09138316882 0.0
0.509724826085 4.0834507802 0.0
0.528146580414 4.07600377808 0.0
0.546759103951 4.06904741762 0.0
0.56554943677 4.06258654322 0.0
0.584504260001 4.05662573401 0.0
0.60361041518 4.0511691282 0.0
0.622854334779 4.04622060039 0.0
0.642222678753 4.04178358113 0.0
0.661701681839 4.03786122392 0.0
0.681277836375 4.03445624851 0.0
0.700937245817 4.03157107217 0.0
0.720666255912 4.02920769845 0.0
0.740450894784 4.02736780161 0.0
0.76027736978 4.02605266363 0.0
0.780131702711 4.02526321235 0.0
0.799999999998 4.025 0.0
0.819868297285 4.02526321235 0.0
0.839722630216 4.02605266363 0.0
0.859549105212 4.02736780161 0.0
0.879333744085 4.02920769845 0.0
0.89906275418 4.03157107217 0.0
0.918722163621 4.03445624851 0.0
0.938298318157 4.03786122392 0.0
0.957777321244 4.04178358113 0.0
0.977145665218 4.04622060039 0.0
0.996389584817 4.0511691282 0.0
1.01549574 4.05662573401 0.0
1.03445056323 4.06258654322 0.0
1.05324089605 4.06904741762 0.0
1.07185341958 4.07600377808 0.0
1.09027517391 4.0834507802 0.0
1.10849315734 4.09138316882 0.0
1.12649462563 4.09979539439 0.0
1.1442669209 4.10868154222 0.0
1.16179756906 4.1180353746 0.0
1.1790742871 4.12785033813 0.0
1.1960849082 4.13811952024 0.0
1.21281755802 4.14883575334 0.0
1.22926039879 4.15999145532 0.0
1.24540200269 4.17157887342 0.0
1.26123091585 4.18358978512 0.0
1.27673615785 4.19601585877 0.0
1.29190671097 4.20884826442 0.0
1.30673206073 4.22207810803 0.0
1.32120167579 4.23569599189 0.0
1.33530551541 4.24969246611 0.0
1.34903357612 4.26405760374 0.0
1.36237630898 4.27878141198 0.0
1.3753242847 4.29385348652 0.0
1.38786845609 4.30926329506 0.0
1.05632730172 4.46025283906 0.0
0.549964048968 4.4630053958 0.0
0.806135520676 4.31186690218 0.0
0.603895783049 4.26079310371 0.0
1.22984770884 4.38318704125 0.0
0.3703382852 4.38423552752 0.0
0.995322815839 4.25565031136 0.0
0.728315816804 4.1765935937 0.0
0.872128173905 4.17288724072 0.0
1.14059401893 4.27298468684 0.0
0.461553191009 4.27181671009 0.0
0.784706775856 4.56821390922 0.0
0.398287125272 4.57945970538 0.0
1.20625306554 4.58334743514 0.0
0.624100842742 4.1589824436 0.0
0.5257453845 4.18811776279 0.0
0.978502430793 4.15488737058 0.0
1.07419209812 4.18825154482 0.0
0.364313698077 4.28677035763 0.0
1.23509538257 4.28681716733 0.0
0.68124123937 4.39284548972 0.0
1.31679378691 4.35012066749 0.0
0.283206213094 4.35012066749 0.0
0.791498533126 4.11467141721 0.0
0.931481076052 4.3801344917 0.0
0.966719065571 4.62778042839 0.0
0.684451667517 4.11068036752 0.0
0.618335406951 4.62686910993 0.0
0.450982331762 4.19686171732 0.0
0.915674266355 4.10995633851 0.0
1.14900051594 4.19689012964 0.0
1.30193709687 4.4481448133 0.0
0.298574667609 4.44816296922 0.0
1.05734787542 4.34990107617 0.0
0.539273225177 4.35252599628 0.0
0.709896798149 4.27721026287 0.0
0.895708916005 4.26924194389 0.0
0.813273511364 4.43835766235 0.0
0.559289631452 4.13230879113 0.0
1.04001407307 4.13281539633 0.0
0.801161810585 4.23146244955 0.0
0.665113819616 4.52056650186 0.0
0.852577362173 4.09111846388 0.0
0.390256727869 4.2242806298 0.0
1.20974450479 4.22428104599 0.0
0.921542541183 4.52778058719 0.0
1.14030889032 4.36437344809 0.0
1.15600477272 4.46808538305 0.0
0.435243219029 4.4750581257 0.0
0.462045157798 4.36654654286 0.0
0.735806812738 4.08472269746 0.0
1.30082934537 4.29793772796 0.0
0.299170654625 4.29793772796 0.0
0.533651712118 4.26265983853 0.0
0.666130919144 4.21652131559 0.0
1.0676097303 4.26179469382 0.0
1.08054433577 4.58530946155 0.0
0.506773767255 4.56568295079 0.0
0.626745312844 4.10124420826 0.0
0.933845304214 4.2106954732 0.0
0.293717639664 4.55175000185 0.0
0.312505022079 4.66426411351 0.0
1.3058164124 4.55154930624 0.0
1.29054387065 4.66302765963 0.0
0.973467966326 4.09941619478 0.0
0.487935413164 4.15087084015 0.0
0.461549079751 4.68836834982 0.0
1.11203248746 4.15093503889 0.0
1.14453515393 4.70617370303 0.0
0.840217564202 4.68891146633 0.0
0.585347033288 4.20539048534 0.0
0.619177396637 4.34227576306 0.0
0.331644410315 4.24962190462 0.0
1.26835558968 4.24962190462 0.0
1.01536156978 4.19987473052 0.0
0.809331033562 4.07065709122 0.0
0.982321540791 4.33437358971 0.0
0.725600576914 4.66999651799 0.0
0.812291456186 4.16642942492 0.0
0.335887692543 4.33918235669 0.0
1.26344844681 4.34017131907 0.0
1.23449730504 4.49457441524 0.0
1.34334172095 4.40539551957 0.0
0.256658279045 4.40539551957 0.0
0.741646926828 4.34287908527 0.0
0.674799084703 4.16673768522 0.0
1.18647435526 4.30955189749 0.0
0.360563250283 4.49596479569 0.0
0.873716483853 4.33845499203 0.0
0.418704489949 4.31146264283 0.0
0.492670911224 4.22931614809 0.0
0.403480880356 4.19046776931 0.0
1.19651541215 4.1904686246 0.0
0.728649253738 4.46214546491 0.0
1.00883674467 4.40174664879 0.0
1.11035034557 4.23161841276 0.0
0.261968539765 4.3130079512 0.0
1.33803146023 4.3130079512 0.0
0.74649980488 4.1318354354 0.0
0.927597725248 4.1577597079 0.0
0.892956618256 4.07619338913 0.0
0.659794281787 4.07951387326 0.0
0.587663534405 4.09486537006 0.0
0.942353209926 4.07935300973 0.0
1.01493747319 4.09476013719 0.0
0.613130017774 4.41369803882 0.0
0.449373501074 4.15377191978 0.0
0.514840228377 4.12225850006 0.0
0.497057592 4.41333092106 0.0
1.15061382426 4.15379293084 0.0
1.08514419473 4.12228328152 0.0
0.745617635771 4.23098957592 0.0
0.87523452213 4.59853036549 0.0
0.855262884783 4.2258970831 0.0
1.01126200032 4.53280064162 0.0
1.09391916408 4.40632408872 0.0
1.04436265455 4.71482000827 0.0
0.314320181089 4.38773968607 0.0
1.28649331902 4.38743720145 0.0
0.771211579291 4.06316862024 0.0
0.432259099658 4.24006002157 0.0
0.698583889427 4.07144353526 0.0
1.16802128371 4.238862881 0.0
1.09587629216 4.3086676659 0.0
1.35920470355 4.35666960471 0.0
0.240795296449 4.35666960471 0.0
0.504003580654 4.30815758118 0.0
0.579942709371 4.5342075073 0.0
0.875915224914 4.12815792528 0.0
0.426503136644 4.40717733008 0.0
0.57541416445 4.30365301522 0.0
0.683877978289 4.33161848113 0.0
0.888061695889 4.44633509246 0.0
0.26012287522 4.49859249103 0.0
1.33987712478 4.49859249103 0.0
0.801393572636 4.37060096582 0.0
0.558460082533 4.72496728209 0.0
1.1741923373 4.41132830101 0.0
0.83220012886 4.12779415912 0.0
1.02815069622 4.30053276509 0.0
0.948308583502 4.2880204454 0.0
0.846588933095 4.50834596945 0.0
0.343666800815 4.43485820652 0.0
1.25632767671 4.43480360053 0.0
0.97849585731 4.47031535602 0.0
1.10170977548 4.51507265998 0.0
0.662193131828 4.26809398492 0.0
0.400503668388 4.26881657105 0.0
1.20117145985 4.26130427377 0.0
0.350957892513 4.21796558019 0.0
1.24904210749 4.21796558019 0.0
0.771964652188 4.18905379403 0.0
0.932165148285 4.72736281402 0.0
0.373672364094 4.73321357765 0.0
0.760245937722 4.28409350779 0.0
0.848718469252 4.05767763075 0.0
1.23385612561 4.7358294747 0.0
0.846421485813 4.28065918421 0.0
0.651597058631 4.13043284014 0.0
0.650489852552 4.72138045504 0.0
0.58457834847 4.16375088261 0.0
0.48701309933 4.18859927013 0.0
0.708495738406 4.58856947756 0.0
1.11203398596 4.18878062515 0.0
0.54865558244 4.10250047869 0.0
1.05126102377 4.10234629471 0.0
0.300013757486 4.26259646442 0.0
1.29998624251 4.26259646442 0.0
0.9465032388 4.12718070354 0.0
0.708587583337 4.14146095907 0.0
0.973348904468 4.19537871864 0.0
0.628721855632 4.19538356945 0.0
0.380175010018 4.34021880077 0.0
0.662092932411 4.45899041267 0.0
1.05133526787 4.22221992007 0.0
0.528087045766 4.64327882187 0.0
1.22233124543 4.33521693908 0.0
1.19001193434 4.36273586668 0.0
0.853024099244 4.39544003492 0.0
0.542800296246 4.22324366905 0.0
0.247706318737 4.45239119247 0.0
1.35229368126 4.45239119247 0.0
0.599153768578 4.12953797005 0.0
1.01616570494 4.16227683178 0.0
0.744705786938 4.40569544575 0.0
1.31929001115 4.73702550052 0.0
0.777615355331 4.15113602511 0.0
1.33132411895 4.60631378639 0.0
0.265621610877 4.60975488866 0.0
0.532023338888 4.15374454388 0.0
1.0697792195 4.15241429251 0.0
0.286371037106 4.73010312914 0.0
0.497725885905 4.50153668256 0.0
0.46053455822 4.31587947599 0.0
0.433799237968 4.54629400991 0.0
0.388624781906 4.65094200004 0.0
0.554823673752 4.40451940232 0.0
1.1421595646 4.31818301431 0.0
1.14760043966 4.61655103139 0.0
1.21258698805 4.65320200685 0.0
1.16279096046 4.53292621409 0.0
0.995762647814 4.12508772517 0.0
0.456229040627 4.61456685246 0.0
0.707289391156 4.21520271873 0.0
0.763036833302 4.74285445535 0.0
0.78386198569 4.49787013126 0.0
[...]
POINT_DATA 999
VECTORS Displacement float
-9.56062838591e-05 -0.0359085382282 0
9.19387006725e-05 -0.0359110081147 0
0.0 -0.036 0
0.0 -0.036 0
9.67276225849e-05 -0.0359105390357 0
0.000101408300108 -0.0359098152755 0
0.000105575246631 -0.0359088560215 0
0.000108979777468 -0.035908074458 0
0.00011070627186 -0.0359077361422 0
0.000111365268247 -0.035908109721 0
0.000109378834755 -0.035909447305 0
0.000104453347987 -0.0359120533153 0
9.6109196542e-05 -0.0359171074806 0
8.29368107087e-05 -0.0359254177411 0
6.43948527963e-05 -0.0359388997457 0
3.83692348598e-05 -0.0359606683347 0
0.0 -0.036 0
0.0 -0.036 0
0.0 -0.036 0
0.0 -0.036 0
0.0 -0.036 0
0.0 -0.036 0
0.0 -0.036 0
0.0 -0.036 0
0.0 -0.036 0
0.0 -0.036 0
0.0 -0.036 0
0.0 -0.036 0
0.0 -0.036 0
0.0 -0.036 0
0.0 -0.036 0
0.0 -0.036 0
0.0 -0.036 0
-3.86135343151e-05 -0.0359602675353 0
-6.50271453417e-05 -0.0359381362892 0
-8.46609355007e-05 -0.0359241942601 0
-9.77770525696e-05 -0.0359154456211 0
-0.000106356450793 -0.0359101358718 0
-0.000111628767534 -0.0359073572903 0
-0.000113896877485 -0.0359059283084 0
-0.000113477216028 -0.0359054693601 0
-0.000111968646753 -0.0359057371564 0
-0.000108762774516 -0.0359064618573 0
-0.000104778062909 -0.0359073816476 0
-0.000100258786211 -0.0359080805065 0
-9.17797740679e-05 -0.0359061854827 0
-8.7555448241e-05 -0.0359036337317 0
-8.29475580629e-05 -0.0359006697094 0
-7.78794276786e-05 -0.0358972814569 0
-7.24001425355e-05 -0.0358933268756 0
-6.66472504372e-05 -0.0358887058707 0
-6.05861234389e-05 -0.0358835085843 0
-5.40132296917e-05 -0.0358776651879 0
-4.70761560914e-05 -0.0358708009623 0
-4.00361108751e-05 -0.0358634237361 0
-3.26314654312e-05 -0.0358550998664 0
-2.47634353866e-05 -0.0358458814115 0
-1.67789910905e-05 -0.0358355380612 0
-8.45332202222e-06 -0.035824206539 0
1.11147989832e-07 -0.0358117490272 0
8.98762410926e-06 -0.0357979869664 0
1.79429804036e-05 -0.0357828127204 0
2.7399790995e-05 -0.0357662171675 0
3.6836884035e-05 -0.0357478527076 0
4.67280390793e-05 -0.0357275388011 0
5.64270127605e-05 -0.035705175301 0
6.68815698671e-05 -0.0356804605166 0
7.69498027525e-05 -0.0356527685551 0
8.7646596453e-05 -0.035622023352 0
9.81825077928e-05 -0.0355874632837 0
0.000109871061676 -0.0355478157275 0
0.000120312188819 -0.0355026362012 0
0.000132397866559 -0.0354484329341 0
0.000141801982933 -0.0353844487745 0
0.00015400809792 -0.0353015563327 0
0.000159937094398 -0.0351867529032 0
0.000150696071 -0.0350145687383 0
0.000114948129192 -0.0348865023496 0
6.45449001231e-05 -0.034811111647 0
-6.13826958329e-06 -0.0347818306257 0
-7.01471726023e-05 -0.0348093220852 0
-0.000126367835998 -0.0348879927691 0
-0.000162689107802 -0.0350146556392 0
-0.00016904025078 -0.0351885238108 0
-0.000159710495756 -0.0353064534439 0
-0.000149342417949 -0.0353864448576 0
-0.000137135475194 -0.0354500025815 0
-0.000126784028571 -0.0355039062654 0
-0.000116191769305 -0.0355491295674 0
-0.000104434329744 -0.035588786895 0
-9.37995697448e-05 -0.0356234525371 0
-8.29402826559e-05 -0.0356542520879 0
-7.2704581667e-05 -0.0356818399934 0
-6.22123149364e-05 -0.035706510744 0
-5.24390344816e-05 -0.0357289208968 0
-4.24775840139e-05 -0.0357492956643 0
-3.29425462415e-05 -0.0357677339992 0
-2.33733963822e-05 -0.0357844008962 0
-1.43020485497e-05 -0.0357996354372 0
-5.31299793604e-06 -0.035813451633 0
3.36123252853e-06 -0.0358259598664 0
1.17925475254e-05 -0.0358373418419 0
1.98811133417e-05 -0.0358477374654 0
2.78530606369e-05 -0.035857010112 0
3.53639077974e-05 -0.0358653880669 0
4.25116348143e-05 -0.0358728177818 0
4.95530650229e-05 -0.0358797292186 0
5.62274467842e-05 -0.0358856172495 0
6.2387456219e-05 -0.0358908588258 0
6.82395162334e-05 -0.0358955255417 0
7.38158803322e-05 -0.0358995264408 0
7.89812866588e-05 -0.035902963973 0
8.36871731784e-05 -0.0359059799942 0
8.80098357903e-05 -0.035908588926 0
8.82429981983e-05 -0.0358059532383 0
-8.90392352077e-05 -0.0358035975514 0
1.83165887656e-06 -0.0355390192133 0
-8.489726772e-05 -0.0356373794617 0
0.000103463889387 -0.0358636065608 0
-0.000106580994501 -0.035862157588 0
8.00936179547e-05 -0.03563421388 0
-5.50172509608e-05 -0.0353591208332 0
4.9432756859e-05 -0.0353547072123 0
8.13505442337e-05 -0.0357914027388 0
-8.51232492641e-05 -0.0357879199304 0
-5.86759052689e-06 -0.0358195831179 0
-8.93218418008e-05 -0.0359090400246 0
8.71852264665e-05 -0.0359122019099 0
-5.2224910455e-05 -0.0355552631615 0
-5.2415590719e-05 -0.0357119789278 0
4.31889377985e-05 -0.0355604096844 0
4.76755275063e-05 -0.0357132994504 0
-8.64744058125e-05 -0.0358528128253 0
8.25385473653e-05 -0.0358542500891 0
-5.97685602094e-05 -0.0356786345473 0
9.83048659062e-05 -0.0358907404033 0
-0.000101750811252 -0.0358887519435 0
-1.06107524429e-05 -0.035121317613 0
6.28637417086e-05 -0.0356743761715 0
4.2672163535e-05 -0.0358838142017 0
-3.25344665161e-05 -0.0353854940264 0
-4.73356169717e-05 -0.0358855411382 0
-5.01897383842e-05 -0.0357884965932 0
2.58055871505e-05 -0.0353873423274 0
4.55109217343e-05 -0.0357900806091 0
0.000109183135145 -0.0358961400261 0
-0.000111828632545 -0.0358944007917 0
9.34098183511e-05 -0.0357476075831 0
-9.69844735399e-05 -0.0357504273951 0
-5.76525071445e-05 -0.0355304509701 0
5.68495388162e-05 -0.0355264106319 0
5.43703411206e-06 -0.0356956980641 0
-1.34516023544e-05 -0.0356626997646 0
8.36009134503e-06 -0.0356628827801 0
-1.64183314913e-06 -0.0354073778762 0
-5.12738322174e-05 -0.0357976704562 0
2.17972500147e-05 -0.0351379175455 0
-6.2192076055e-05 -0.0358345933303 0
5.77534692522e-05 -0.0358363558297 0
4.41862438594e-05 -0.0358002075461 0
9.95426883605e-05 -0.035812869156 0
0.000100365370519 -0.0358559396408 0
-0.000103137088309 -0.0358606963555 0
-0.00010271608856 -0.0358106477504 0
-2.43587264807e-05 -0.0351669244114 0
8.50724233933e-05 -0.0358836146397 0
-8.89117582428e-05 -0.0358816056184 0
-8.56524213827e-05 -0.0357192511767 0
-7.40250900071e-05 -0.0355162453321 0
8.11765913228e-05 -0.0357217478334 0
7.22686321592e-05 -0.0358836860896 0
-7.97821909312e-05 -0.0358763621991 0
5.09931890535e-06 -0.0355385991313 0
6.87341661222e-05 -0.0355120235096 0
-0.00010286364973 -0.035914269529 0
-7.06083340312e-05 -0.0359453162493 0
0.000101083040177 -0.0359155690207 0
7.04011855667e-05 -0.0359456789097 0
-1.39098673073e-05 -0.0355403033399 0
-2.07608592357e-05 -0.0357519944214 0
-5.2334568047e-05 -0.0359433547832 0
1.56287758859e-05 -0.0357534758323 0
4.64561069908e-05 -0.0359521877797 0
8.13780982929e-06 -0.0359141543531 0
-7.03536701135e-05 -0.035636237459 0
-8.45244957164e-05 -0.0356780238236 0
-7.22375096185e-05 -0.0358671135407 0
6.80413873676e-05 -0.035869059804 0
6.27658580003e-05 -0.0356364586377 0
-2.06854505e-06 -0.0349631354351 0
8.15881431349e-05 -0.0356744466722 0
-1.74454570081e-05 -0.0359023639292 0
8.13973294645e-06 -0.035270152788 0
-9.99054454494e-05 -0.0358701178188 0
9.65994082802e-05 -0.0358717245776 0
0.000104133662008 -0.0358903606093 0
0.000107226970673 -0.0358999232298 0
-0.000110271152774 -0.0358979260022 0
-3.53871576163e-05 -0.0355940477519 0
-6.42236438673e-05 -0.035454409623 0
9.04112361534e-05 -0.0358292502591 0
-0.000106754925007 -0.0358906849879 0
4.08464072e-05 -0.0355962854249 0
-9.47386822336e-05 -0.0358248687807 0
-7.09751456117e-05 -0.0357535311304 0
-4.41216802314e-05 -0.0358248616344 0
3.94163893599e-05 -0.0358265807628 0
-3.28731425837e-05 -0.0357290398612 0
8.39835717031e-05 -0.0357422362659 0
6.73113435096e-05 -0.0357582160248 0
-9.29073098474e-05 -0.0358937879653 0
8.91669891039e-05 -0.035895935432 0
-4.32225633992e-05 -0.0352372527567 0
5.56282041193e-05 -0.0354533287612 0
-7.86990066944e-06 -0.0352829766216 0
2.71762869767e-05 -0.0354535135112 0
2.60277775567e-05 -0.0356164055505 0
-3.50577921296e-05 -0.0354611185787 0
-3.23321159129e-05 -0.0356223379572 0
-8.01717094222e-05 -0.0357362860153 0
-2.06965771114e-05 -0.0357886870992 0
3.0394946056e-06 -0.035721817619 0
-0.000101037430478 -0.0358068319259 0
1.56434279013e-05 -0.0357902882641 0
-8.57556653764e-06 -0.0357231747867 0
-4.13914434873e-05 -0.035430940346 0
2.26447815807e-05 -0.035848733635 0
3.83027094107e-05 -0.035423776225 0
6.83764635104e-05 -0.0358319243441 0
9.7341354629e-05 -0.0357994683125 0
3.57619065498e-05 -0.0359464582927 0
-0.000107702265541 -0.0358826692613 0
0.000104552581031 -0.0358846423258 0
-1.61606838402e-06 -0.0349716089467 0
-7.14487727273e-05 -0.0358066469593 0
1.77979645943e-05 -0.0353157778946 0
6.64874974041e-05 -0.035808331009 0
9.11391392296e-05 -0.0357626717367 0
9.9568960135e-05 -0.0359016227641 0
-0.0001029986269 -0.0358994318771 0
-9.49109573211e-05 -0.0357614160577 0
-7.17655435859e-05 -0.0358354438086 0
4.49621901823e-05 -0.0352869619235 0
-0.000106409100542 -0.0358422921863 0
-9.15461900401e-05 -0.0356935613102 0
-6.45950055136e-05 -0.0356152475977 0
3.94035194839e-05 -0.0357182484973 0
-0.000111369107978 -0.03590638939 0
0.000108981054606 -0.0359081315416 0
-6.1392157804e-07 -0.0356172230638 0
-3.30359754586e-05 -0.0359510185694 0
0.000103497227896 -0.0358452915835 0
2.51128357258e-05 -0.0351862917855 0
8.77625754653e-05 -0.0356965793326 0
7.42317345449e-05 -0.0356023503237 0
1.81843058142e-05 -0.0357684679893 0
-0.000110189756028 -0.0358810105567 0
0.000107483463391 -0.0358824967297 0
6.88566601749e-05 -0.0357750963492 0
8.83058638208e-05 -0.0358545284475 0
-7.60319796003e-05 -0.0355713352691 0
-8.14165167073e-05 -0.035830855241 0
7.44439894981e-05 -0.0358329552483 0
-5.82769827352e-05 -0.0358571270809 0
5.38409136862e-05 -0.0358590282767 0
-2.56174743863e-05 -0.0353296544877 0
1.9562011714e-05 -0.0359444179392 0
-4.03445117638e-05 -0.0359678868267 0
-2.86377243263e-05 -0.0355062363262 0
-2.16105361699e-05 -0.0350311932248 0
3.89150161512e-05 -0.0359694093252 0
2.89745678615e-05 -0.0355048437367 0
-3.84199530765e-05 -0.0354849610616 0
-2.3419349773e-05 -0.0359419705819 0
-4.62566914477e-05 -0.035626414417 0
-4.82114836396e-05 -0.0357545597122 0
-2.93735398004e-05 -0.0358430252877 0
4.35653855071e-05 -0.0357552003111 0
2.19848176833e-05 -0.0356778640144 0
-2.78125607041e-05 -0.0356790916323 0
-7.71219386166e-05 -0.0358807714196 0
7.30317923201e-05 -0.0358828190485 0
2.97020741399e-05 -0.0354814588124 0
-5.52592327867e-05 -0.0353465597519 0
6.57211899125e-05 -0.0355679491522 0
-7.08759726482e-05 -0.0355633743306 0
-0.000100290583837 -0.0358506111647 0
-5.92861475447e-05 -0.0357478060933 0
6.85619391938e-05 -0.0356919112784 0
-5.87834164508e-05 -0.0359117808327 0
9.5821828483e-05 -0.0358526990399 0
0.000100338785943 -0.0358409177091 0
2.65193409417e-05 -0.0356546974076 0
-7.29260490464e-05 -0.0356979390124 0
-0.000113209023732 -0.0359024272104 0
0.000110503671778 -0.0359043519307 0
-2.03476503632e-05 -0.0355966573342 0
3.97870585335e-05 -0.0356288237857 0
-2.95676139064e-05 -0.0356664202819 0
4.14458595551e-05 -0.0359685550832 0
-2.19177894055e-05 -0.0352364550283 0
9.08267154108e-05 -0.0359278374432 0
-9.16162734314e-05 -0.035927376437 0
-2.84388223753e-05 -0.0357013650785 0
2.17554629645e-05 -0.035704850805 0
-4.44661659643e-05 -0.0359661920709 0
-9.24637270839e-05 -0.0358473460258 0
-9.61422011007e-05 -0.0357976991118 0
-9.30213179058e-05 -0.0358884056269 0
-7.00232289775e-05 -0.0359367867156 0
-9.3565817771e-05 -0.0357669416719 0
9.29512673481e-05 -0.0358015607435 0
7.35147224475e-05 -0.0359140597699 0
6.84022843679e-05 -0.0359383216015 0
9.32306052531e-05 -0.0358829651344 0
1.11605960165e-05 -0.0355883329442 0
-7.47352504719e-05 -0.035911867924 0
-6.31287287652e-05 -0.0354516759751 0
-5.31117386636e-06 -0.0359505250904 0
-7.53604722005e-06 -0.0357562487238 0
6.42831696842e-05 -0.0356240041951 0
-2.61541750286e-05 -0.0358123756714 0
5.81497996036e-05 -0.0354453742526 0
2.12142735797e-05 -0.0358140653322 0
0.000106796784252 -0.0359019440953 0
1.64734526346e-05 -0.0351295251572 0
-8.48792821781e-05 -0.0358693981188 0
8.09312098122e-05 -0.035871308613 0
-4.61961105973e-05 -0.0358444825899 0
4.15600075369e-05 -0.0358463135108 0
-7.39431405798e-05 -0.0357851789904 0
-0.000104461274372 -0.0358398815916 0
-2.36068806725e-05 -0.0350913195536 0
-3.27011072019e-05 -0.0357992085392 0
-7.41400216074e-05 -0.0358504028799 0
6.99555618434e-05 -0.035852182647 0
-0.000109124291538 -0.0358995972921 0
0.000105280201398 -0.0358706890976 0
7.46425872915e-05 -0.0355717679102 0
-8.45166966468e-05 -0.0358905824091 0
8.05788128032e-05 -0.0358927191282 0
5.2606518441e-05 -0.0359238148283 0
-0.000107393530862 -0.0358688815046 0
-9.74341461273e-05 -0.0359005320775 0
9.38192514448e-05 -0.0359027875626 0
4.4853387296e-05 -0.0355509638753 0
2.92481315729e-05 -0.0353581131999 0
8.72144229862e-05 -0.0359260432959 0
-8.89293473112e-05 -0.0359250125154 0
-8.42753850771e-05 -0.0357563239086 0
-3.90097921405e-05 -0.035287705393 0
1.34152015778e-07 -0.0354621298322 0
1.25389184005e-05 -0.035084322857 0
9.69961087169e-05 -0.0357831423775 0
8.04483347718e-05 -0.0357588182776 0
-8.28912556374e-05 -0.0356338259219 0
-5.58539767884e-05 -0.0353720008095 0
-4.82290242248e-05 -0.0355521531938 0
9.59255637882e-05 -0.035834535771 0
-9.83254096379e-05 -0.0358812973894 0
9.47738589876e-05 -0.0358832007992 0
4.60261935709e-05 -0.0358403807969 0
-0.000100352511309 -0.0357828457925 0
-8.43785729969e-05 -0.0356679119921 0
4.326109189e-05 -0.0356705800428 0
-5.18047011305e-05 -0.0358401421588 0
-5.30541643195e-06 -0.035882667166 0
-2.78476302257e-06 -0.0357624535039 0
-2.51314339634e-06 -0.0357639596885 0
-6.9572761524e-05 -0.0357826955256 0
6.30838868105e-05 -0.0357846117898 0
-0.00010679396785 -0.0359130012272 0
0.000104820076772 -0.0359145862174 0
-8.06876332936e-05 -0.0355967683314 0
8.01518822391e-05 -0.0356754925029 0
-5.24432905195e-05 -0.0356744091411 0
5.8380777156e-05 -0.0358783994109 0
-3.14327696416e-05 -0.0351703203372 0
6.0015897931e-05 -0.0357289492457 0
0.000104341939662 -0.0359038727901 0
-0.000107577848066 -0.0359016730091 0
-5.36514539475e-05 -0.0358106519455 0
2.88594601854e-05 -0.0352642067795 0
4.90507977082e-05 -0.0358122999004 0
-6.94864671708e-05 -0.0355126957468 0
2.45717547904e-05 -0.0358986789389 0
2.69866172366e-05 -0.0359707617093 0
9.19467197347e-05 -0.0357693050511 0
-9.1573376525e-05 -0.0357247640546 0
0.000104632217699 -0.0358925933683 0
-0.000107794313668 -0.0358907016119 0
9.77428932345e-05 -0.0359079434618 0
-0.000100003929099 -0.0359060496718 0
4.95864854458e-05 -0.0353811769678 0
8.36061264558e-05 -0.0358150693823 0
6.33949942751e-05 -0.0354020274193 0
1.46470171138e-06 -0.0348788288143 0
3.35446283161e-05 -0.0352789322578 0
-0.000103500621364 -0.0358361832892 0
-8.67297542215e-05 -0.0358173585783 0
-6.17424065781e-05 -0.0358686255205 0
5.73792025963e-05 -0.0358706059404 0
1.81537180982e-05 -0.0355947943418 0
6.49147743414e-05 -0.0355032308597 0
-1.8011163483e-05 -0.0349320634558 0
6.94182884345e-05 -0.0359457347465 0
-9.44929721456e-05 -0.0358639918079 0
9.04514593464e-05 -0.0358658562294 0
8.59297913803e-05 -0.0357091106636 0
-7.62803737357e-05 -0.0359403338408 0
-2.56909581436e-05 -0.0359724011601 0
0.000101236675233 -0.0358228901844 0
-6.46151026568e-05 -0.035883511564 0
-6.44713968427e-05 -0.0355183590583 0
7.7332285995e-05 -0.0356969826535 0
8.87131807278e-05 -0.0357295575159 0
7.20844201849e-05 -0.035608766682 0
8.32319044315e-05 -0.0356517108147 0
-7.50908195559e-05 -0.0356928681556 0
-0.000101133911595 -0.0358835458746 0
-9.84189904053e-06 -0.0354766954669 0
-2.73417858455e-05 -0.0355538443193 0
-0.000103418231551 -0.0358803307421 0
0.00010002737326 -0.0358824749541 0
-6.82949769337e-05 -0.0358770516508 0
6.4045354718e-05 -0.0358790888579 0
5.9686810631e-05 -0.0354206386585 0
8.58971671583e-05 -0.0358417758303 0
8.11804673124e-05 -0.0358358976172 0
5.92738274547e-05 -0.0355190127639 0
-9.31618528384e-05 -0.0357293832687 0
-4.34638715405e-05 -0.035545234358 0
-9.46856170256e-05 -0.0358435628346 0
-9.85757088157e-05 -0.0358951021462 0
9.50006344747e-05 -0.0358972358078 0
8.39698468523e-06 -0.0359561498683 0
-3.595890349e-05 -0.0357277388688 0
-3.322471145e-05 -0.0357693263918 0
-0.00010396417703 -0.0358213072021 0
4.48528585371e-05 -0.0355470014654 0
1.11919969891e-06 -0.035480976374 0
-9.69334599659e-05 -0.0358223943872 0
6.26516247306e-05 -0.0357248413137 0
2.70069104304e-05 -0.0359765682014 0
4.25019436546e-05 -0.0356570528789 0
2.8501797708e-05 -0.0357709356008 0
-2.97638250564e-05 -0.0358937967063 0
-4.08033443398e-05 -0.0352795303345 0
3.30351703659e-05 -0.0357311006936 0
-2.18518540442e-05 -0.0354533227329 0
2.76942684375e-05 -0.035706649708 0
-4.97710125797e-05 -0.0356594179385 0
-6.57778778301e-05 -0.0357245790315 0
-3.33789433817e-05 -0.0357079825927 0
6.92857347117e-07 -0.0351972091885 0
2.03826776202e-05 -0.0354516709366 0
-1.01300558112e-05 -0.0350085752384 0
0.00010923611453 -0.0359043515687 0
-0.000112159428523 -0.0359022687156 0
5.95416750208e-05 -0.0355937192652 0
6.88637793346e-05 -0.0355146388057 0
-9.76379861514e-06 -0.0359666472112 0
-7.41879454592e-05 -0.0355145582303 0
-6.47988889116e-05 -0.0355965155744 0
1.38249691457e-05 -0.0357500496806 0
-1.20521744303e-06 -0.0357820826775 0
-6.50659620805e-05 -0.0354259962353 0
-1.9309570244e-05 -0.03575150117 0
-4.05949605856e-06 -0.0357836637538 0
0.000101682670699 -0.0358770276012 0
4.81716125946e-05 -0.0359096071249 0
-1.37439403253e-05 -0.0355821577383 0
3.99635764214e-05 -0.0349964833592 0
-4.38786630065e-06 -0.0353666421769 0
6.23667273012e-05 -0.035234502176 0
-5.22259106114e-05 -0.035418888104 0
9.93988833158e-05 -0.0358629161525 0
0.000104260148171 -0.0358985595435 0
-0.000107482871279 -0.0358965134063 0
-8.3802792087e-05 -0.0358335145062 0
0.000107737409985 -0.0358917533749 0
-0.000110660360738 -0.0358899999363 0
1.26572697055e-05 -0.0358146327777 0
-7.98541773601e-05 -0.0356338363941 0
1.73176971418e-05 -0.0359667774613 0
1.04561427146e-05 -0.0350474245679 0
4.30028659419e-05 -0.0356492143921 0
-3.14232892267e-05 -0.0358337956385 0
2.65857587811e-05 -0.0358355818736 0
-0.000105451831605 -0.0358720810336 0
6.34053737963e-05 -0.0355807590373 0
1.587306299e-07 -0.0356322623246 0
-6.15223528288e-05 -0.0355919802256 0
8.20617998545e-05 -0.0358907389149 0
-4.43334134953e-05 -0.0353789323183 0
-6.90211536761e-05 -0.0355795627855 0
9.39352714899e-07 -0.0353860441681 0
2.70917528243e-06 -0.0353352536443 0
-0.000108264679354 -0.0358616759038 0
-4.55889768693e-05 -0.0356967276227 0
3.57388498382e-05 -0.0352116920266 0
-1.59590485939e-05 -0.0357058639247 0
-5.28956478741e-05 -0.0356339862712 0
9.80365895644e-08 -0.0356908428007 0
-3.93985775201e-05 -0.0358075434876 0
3.46063449007e-05 -0.0358092017259 0
-5.70199921879e-06 -0.0356921389087 0
2.17926394345e-05 -0.0355500977673 0
-3.80226068191e-05 -0.0351789285813 0
6.18658040744e-06 -0.0356482851799 0
0.000108057376592 -0.0358925572964 0
-0.000110572175475 -0.0358905391944 0
-2.48376492142e-05 -0.0359782648991 0
5.40547065862e-05 -0.0355977675502 0
0.00010535429451 -0.0358625335929 0
-2.90852192142e-05 -0.0351521478541 0
-7.04416627255e-05 -0.035296484379 0
-9.66608567833e-05 -0.0358885582854 0
9.30252953616e-05 -0.0358905967224 0
-8.88472616573e-05 -0.0358983632985 0
8.50066909351e-05 -0.0359006067242 0
1.49630902182e-05 -0.0351907726782 0
-0.000101263181388 -0.0358258544434 0
2.39593241198e-07 -0.0355832093808 0
9.68969236477e-05 -0.0358989586336 0
7.34742987584e-05 -0.035657760177 0
1.65335185182e-05 -0.0355338317902 0
0.000102203586859 -0.0358738532159 0
-0.000100263312622 -0.035903314279 0
9.67368558516e-05 -0.0359056275093 0
2.81533993374e-05 -0.0358037443099 0
8.02256208735e-05 -0.0357744119622 0
-1.71554172589e-05 -0.0357264235281 0
-9.2255849813e-05 -0.0358738813087 0
8.84989212855e-05 -0.0358757706546 0
-7.20120376497e-05 -0.0358246145385 0
-2.27405419715e-05 -0.035386326219 0
6.66478825346e-05 -0.035827029329 0
7.02155680576e-05 -0.035559341117 0
-6.97719447646e-06 -0.0350652986633 0
-9.92472663918e-05 -0.0357784885644 0
1.20873505168e-05 -0.035728457563 0
-5.47268651543e-05 -0.0358248217336 0
5.01543656984e-05 -0.0358265074997 0
6.04545086499e-05 -0.0358097077719 0
-7.78981418135e-05 -0.0357722504499 0
-2.56668217208e-05 -0.0359810180737 0