# vtk DataFile Version 2.0
Generated with Solid Solver
ASCII
DATASET UNSTRUCTURED_GRID
POINTS 999 float 
0.2 4.309 0.0
1.4 4.309 0.0
1.4 4.809 0.0
0.2 4.809 0.0
1.4 4.32923264049 0.0
1.4 4.35151203886 0.0
1.4 4.37604525371 0.0
1.4 4.4030602782 0.0
1.4 4.43280817466 0.0
1.4 4.46556541084 0.0
1.4 4.50163640748 0.0
1.4 4.5413564007 0.0
1.4 4.58509451608 0.0
1.4 4.63325723872 0.0
1.4 4.68629217343 0.0
1.4 4.74469218095 0.0
1.33333333333 4.809 0.0
1.26666666667 4.809 0.0
1.2 4.809 0.0
1.13333333333 4.809 0.0
1.06666666667 4.809 0.0
1.0 4.809 0.0
0.933333333334 4.809 0.0
0.866666666668 4.809 0.0
0.800000000001 4.809 0.0
0.733333333334 4.809 0.0
0.666666666668 4.809 0.0
0.600000000001 4.809 0.0
0.533333333334 4.809 0.0
0.466666666667 4.809 0.0
0.4 4.809 0.0
0.333333333334 4.809 0.0
0.266666666667 4.809 0.0
0.2 4.74469218095 0.0
0.2 4.68629217343 0.0
0.2 4.63325723872 0.0
0.2 4.58509451608 0.0
0.2 4.5413564007 0.0
0.2 4.50163640748 0.0
0.2 4.46556541084 0.0
0.2 4.43280817466 0.0
0.2 4.4030602782 0.0
0.2 4.37604525371 0.0
0.2 4.35151203886 0.0
0.2 4.32923264049 0.0
0.212131543907 4.29326329506 0.0
0.224675715302 4.27785348652 0.0
0.23762369102 4.26278141198 0.0
0.250966423879 4.24805760374 0.0
0.264694484585 4.23369246611 0.0
0.278798324214 4.21969599189 0.0
0.293267939266 4.20607810803 0.0
0.308093289028 4.19284826442 0.0
0.323263842145 4.18001585877 0.0
0.338769084145 4.16758978512 0.0
0.354597997314 4.15557887342 0.0
0.37073960121 4.14399145532 0.0
0.387182441982 4.13283575334 0.0
0.403915091795 4.12211952025 0.0
0.420925712897 4.11185033813 0.0
0.438202430937 4.10203537461 0.0
0.455733079095 4.09268154223 0.0
0.473505374364 4.08379539439 0.0
0.491506842655 4.07538316882 0.0
0.509724826085 4.0674507802 0.0
0.528146580414 4.06000377808 0.0
0.546759103951 4.05304741762 0.0
0.56554943677 4.04658654322 0.0
0.584504260001 4.04062573401 0.0
0.60361041518 4.0351691282 0.0
0.622854334779 4.03022060039 0.0
0.642222678753 4.02578358113 0.0
0.661701681839 4.02186122392 0.0
0.681277836375 4.01845624851 0.0
0.700937245817 4.01557107217 0.0
0.720666255912 4.01320769845 0.0
0.740450894784 4.01136780161 0.0
0.76027736978 4.01005266363 0.0
0.780131702711 4.00926321235 0.0
0.799999999998 4.009 0.0
0.819868297285 4.00926321235 0.0
0.839722630216 4.01005266363 0.0
0.859549105212 4.01136780161 0.0
0.879333744085 4.01320769845 0.0
0.89906275418 4.01557107217 0.0
0.918722163621 4.01845624851 0.0
0.938298318157 4.02186122392 0.0
0.957777321244 4.02578358113 0.0
0.977145665218 4.03022060039 0.0
0.996389584817 4.0351691282 0.0
1.01549574 4.04062573401 0.0
1.03445056323 4.04658654322 0.0
1.05324089605 4.05304741762 0.0
1.07185341958 4.06000377808 0.0
1.09027517391 4.0674507802 0.0
1.10849315734 4.07538316882 0.0
1.12649462563 4.08379539439 0.0
1.1442669209 4.09268154222 0.0
1.16179756906 4.1020353746 0.0
1.1790742871 4.11185033813 0.0
1.1960849082 4.12211952024 0.0
1.21281755802 4.13283575334 0.0
1.22926039879 4.14399145532 0.0
1.24540200269 4.15557887342 0.0
1.26123091585 4.16758978512 0.0
1.27673615785 4.18001585877 0.0
1.29190671097 4.19284826442 0.0
1.30673206073 4.20607810803 0.0
1.32120167579 4.21969599189 0.0
1.33530551541 4.23369246611 0.0
1.34903357612 4.24805760374 0.0
1.36237630898 4.26278141198 0.0
1.3753242847 4.27785348652 0.0
1.38786845609 4.29326329506 0.0
1.05632730172 4.44425283906 0.0
0.549964048968 4.4470053958 0.0
0.806135520676 4.29586690218 0.0
0.60389578305 4.24479310371 0.0
1.22984770884 4.36718704125 0.0
0.3703382852 4.36823552752 0.0
0.995322815839 4.23965031136 0.0
0.728315816804 4.1605935937 0.0
0.872128173905 4.15688724072 0.0
1.14059401893 4.25698468684 0.0
0.461553191009 4.25581671009 0.0
0.784706775856 4.55221390922 0.0
0.398287125272 4.56345970538 0.0
1.20625306554 4.56734743514 0.0
0.624100842742 4.1429824436 0.0
0.5257453845 4.17211776279 0.0
0.978502430793 4.13888737058 0.0
1.07419209812 4.17225154482 0.0
0.364313698077 4.27077035763 0.0
1.23509538257 4.27081716733 0.0
0.68124123937 4.37684548972 0.0
1.31679378691 4.33412066749 0.0
0.283206213094 4.33412066749 0.0
0.791498533126 4.09867141721 0.0
0.931481076052 4.3641344917 0.0
0.96671906557 4.61178042839 0.0
0.684451667517 4.09468036752 0.0
0.618335406951 4.61086910993 0.0
0.450982331762 4.18086171732 0.0
0.915674266355 4.09395633851 0.0
1.14900051594 4.18089012964 0.0
1.30193709687 4.4321448133 0.0
0.29857466761 4.43216296922 0.0
1.05734787542 4.33390107617 0.0
0.539273225177 4.33652599628 0.0
0.709896798149 4.26121026287 0.0
0.895708916005 4.25324194389 0.0
0.813273511364 4.42235766235 0.0
0.559289631452 4.11630879113 0.0
1.04001407307 4.11681539633 0.0
0.801161810585 4.21546244955 0.0
0.665113819616 4.50456650186 0.0
0.852577362173 4.07511846388 0.0
0.39025672787 4.2082806298 0.0
1.20974450479 4.20828104599 0.0
0.921542541183 4.51178058719 0.0
1.14030889032 4.34837344809 0.0
1.15600477272 4.45208538305 0.0
0.435243219029 4.4590581257 0.0
0.462045157798 4.35054654286 0.0
0.735806812738 4.06872269746 0.0
1.30082934537 4.28193772796 0.0
0.299170654625 4.28193772796 0.0
0.533651712118 4.24665983853 0.0
0.666130919144 4.20052131559 0.0
1.0676097303 4.24579469382 0.0
1.08054433577 4.56930946155 0.0
0.506773767255 4.54968295079 0.0
0.626745312844 4.08524420826 0.0
0.933845304214 4.1946954732 0.0
0.293717639664 4.53575000185 0.0
0.31250502208 4.64826411351 0.0
1.3058164124 4.53554930624 0.0
1.29054387065 4.64702765963 0.0
0.973467966326 4.08341619478 0.0
0.487935413164 4.13487084015 0.0
0.461549079751 4.67236834982 0.0
1.11203248746 4.13493503889 0.0
1.14453515393 4.69017370303 0.0
0.840217564202 4.67291146633 0.0
0.585347033288 4.18939048534 0.0
0.619177396637 4.32627576306 0.0
0.331644410315 4.23362190462 0.0
1.26835558968 4.23362190462 0.0
1.01536156978 4.18387473052 0.0
0.809331033562 4.05465709122 0.0
0.982321540791 4.31837358971 0.0
0.725600576914 4.65399651799 0.0
0.812291456186 4.15042942492 0.0
0.335887692543 4.32318235669 0.0
1.26344844681 4.32417131907 0.0
1.23449730504 4.47857441524 0.0
1.34334172095 4.38939551957 0.0
0.256658279045 4.38939551957 0.0
0.741646926828 4.32687908527 0.0
0.674799084703 4.15073768522 0.0
1.18647435526 4.29355189749 0.0
0.360563250284 4.47996479569 0.0
0.873716483853 4.32245499203 0.0
0.418704489949 4.29546264283 0.0
0.492670911224 4.21331614809 0.0
0.403480880356 4.17446776931 0.0
1.19651541215 4.1744686246 0.0
0.728649253738 4.44614546491 0.0
1.00883674467 4.38574664879 0.0
1.11035034557 4.21561841276 0.0
0.261968539765 4.2970079512 0.0
1.33803146023 4.2970079512 0.0
0.74649980488 4.1158354354 0.0
0.927597725248 4.1417597079 0.0
0.892956618256 4.06019338913 0.0
0.659794281787 4.06351387326 0.0
0.587663534405 4.07886537006 0.0
0.942353209926 4.06335300973 0.0
1.01493747319 4.07876013719 0.0
0.613130017774 4.39769803882 0.0
0.449373501074 4.13777191978 0.0
0.514840228377 4.10625850006 0.0
0.497057592 4.39733092106 0.0
1.15061382426 4.13779293084 0.0
1.08514419473 4.10628328152 0.0
0.745617635771 4.21498957592 0.0
0.875234522129 4.58253036549 0.0
0.855262884783 4.2098970831 0.0
1.01126200032 4.51680064162 0.0
1.09391916408 4.39032408872 0.0
1.04436265455 4.69882000827 0.0
0.314320181089 4.37173968607 0.0
1.28649331902 4.37143720145 0.0
0.771211579291 4.04716862024 0.0
0.432259099658 4.22406002157 0.0
0.698583889427 4.05544353526 0.0
1.16802128371 4.222862881 0.0
1.09587629216 4.2926676659 0.0
1.35920470355 4.34066960471 0.0
0.240795296449 4.34066960471 0.0
0.504003580654 4.29215758118 0.0
0.579942709371 4.5182075073 0.0
0.875915224914 4.11215792528 0.0
0.426503136644 4.39117733008 0.0
0.57541416445 4.28765301522 0.0
0.683877978289 4.31561848113 0.0
0.888061695889 4.43033509246 0.0
0.26012287522 4.48259249103 0.0
1.33987712478 4.48259249103 0.0
0.801393572636 4.35460096582 0.0
0.558460082533 4.70896728209 0.0
1.1741923373 4.39532830101 0.0
0.83220012886 4.11179415912 0.0
1.02815069622 4.28453276509 0.0
0.948308583502 4.2720204454 0.0
0.846588933095 4.49234596945 0.0
1.25632767671 4.41880360053 0.0
0.343666800815 4.41885820652 0.0
0.97849585731 4.45431535602 0.0
1.10170977548 4.49907265998 0.0
0.662193131828 4.25209398492 0.0
0.400503668388 4.25281657105 0.0
1.20117145985 4.24530427377 0.0
0.350957892513 4.20196558019 0.0
1.24904210749 4.20196558019 0.0
0.771964652188 4.17305379403 0.0
0.932165148285 4.71136281402 0.0
0.373672364094 4.71721357765 0.0
0.760245937722 4.26809350779 0.0
0.848718469252 4.04167763075 0.0
1.23385612561 4.7198294747 0.0
0.846421485813 4.26465918421 0.0
0.651597058631 4.11443284014 0.0
0.650489852552 4.70538045504 0.0
0.58457834847 4.14775088261 0.0
0.48701309933 4.17259927013 0.0
0.708495738406 4.57256947756 0.0
1.11203398596 4.17278062515 0.0
0.54865558244 4.08650047869 0.0
1.05126102377 4.08634629471 0.0
0.300013757486 4.24659646442 0.0
1.29998624251 4.24659646442 0.0
0.9465032388 4.11118070354 0.0
0.708587583337 4.12546095907 0.0
0.973348904468 4.17937871864 0.0
0.628721855632 4.17938356945 0.0
0.380175010018 4.32421880077 0.0
0.662092932411 4.44299041267 0.0
1.05133526787 4.20621992007 0.0
0.528087045766 4.62727882187 0.0
1.22233124543 4.31921693908 0.0
1.19001193434 4.34673586668 0.0
0.853024099244 4.37944003492 0.0
0.542800296246 4.20724366905 0.0
0.247706318737 4.43639119247 0.0
1.35229368126 4.43639119247 0.0
0.599153768578 4.11353797005 0.0
1.01616570494 4.14627683178 0.0
0.744705786938 4.38969544575 0.0
1.31929001115 4.72102550052 0.0
0.777615355331 4.13513602511 0.0
0.265621610877 4.59375488866 0.0
1.33132411895 4.59031378639 0.0
0.532023338888 4.13774454388 0.0
1.0697792195 4.13641429251 0.0
0.286371037106 4.71410312914 0.0
0.497725885905 4.48553668256 0.0
0.46053455822 4.29987947599 0.0
0.433799237968 4.53029400991 0.0
0.388624781906 4.63494200004 0.0
0.554823673752 4.38851940232 0.0
1.1421595646 4.30218301431 0.0
1.14760043966 4.60055103139 0.0
1.21258698805 4.63720200685 0.0
1.16279096046 4.51692621409 0.0
0.995762647814 4.10908772517 0.0
0.456229040627 4.59856685246 0.0
0.707289391156 4.19920271873 0.0
0.763036833302 4.72685445535 0.0
0.78386198569 4.48187013126 0.0
[...]
POINT_DATA 999
VECTORS Displacement float
-4.33847012761e-14 -0.0480000000001 0
3.14409436082e-14 -0.048 0
0.0 -0.048 0
0.0 -0.048 0
2.82253217322e-14 -0.048 0
2.50558347481e-14 -0.048 0
2.17937205472e-14 -0.048 0
1.82807734932e-14 -0.048 0
1.45905649249e-14 -0.048 0
1.05627351247e-14 -0.048 0
6.29790449151e-15 -0.048 0
1.85512981617e-15 -0.048 0
-2.57371993089e-15 -0.048 0
-6.27801474446e-15 -0.048 0
-8.28614607941e-15 -0.048 0
-7.11709094835e-15 -0.048 0
0.0 -0.048 0
0.0 -0.048 0
0.0 -0.048 0
0.0 -0.048 0
0.0 -0.048 0
0.0 -0.048 0
0.0 -0.048 0
0.0 -0.048 0
0.0 -0.048 0
0.0 -0.048 0
0.0 -0.048 0
0.0 -0.048 0
0.0 -0.048 0
0.0 -0.048 0
0.0 -0.048 0
0.0 -0.048 0
0.0 -0.048 0
3.22442844787e-15 -0.048 0
-7.69094396699e-16 -0.048 0
-6.84571139331e-15 -0.048 0
-1.3663317489e-14 -0.048 0
-1.97663315377e-14 -0.048 0
-2.46540182325e-14 -0.0480000000001 0
-2.86202445275e-14 -0.0480000000001 0
-3.17803306726e-14 -0.0480000000001 0
-3.44578883436e-14 -0.0480000000001 0
-3.67885443055e-14 -0.0480000000001 0
-3.88368747364e-14 -0.0480000000001 0
-4.09455585065e-14 -0.0480000000001 0
-4.54684171867e-14 -0.0480000000001 0
-4.75680736559e-14 -0.0480000000001 0
-4.94571411975e-14 -0.0480000000001 0
-5.11556243755e-14 -0.0480000000001 0
-5.26497514614e-14 -0.0480000000001 0
-5.38450761873e-14 -0.0480000000001 0
-5.48012438837e-14 -0.0480000000001 0
-5.54786224562e-14 -0.0480000000001 0
-5.58984515589e-14 -0.0480000000001 0
-5.60172944156e-14 -0.0480000000001 0
-5.58348793721e-14 -0.0480000000001 0
-5.53811595912e-14 -0.0480000000001 0
-5.46210584542e-14 -0.0480000000001 0
-5.3588052356e-14 -0.0480000000001 0
-5.22710672555e-14 -0.0480000000001 0
-5.07102664625e-14 -0.0480000000001 0
-4.88662624815e-14 -0.0480000000001 0
-4.6785249679e-14 -0.0480000000001 0
-4.44404482842e-14 -0.0480000000001 0
-4.188542376e-14 -0.0480000000002 0
-3.91018774329e-14 -0.0480000000002 0
-3.61227484329e-14 -0.0480000000002 0
-3.29525445893e-14 -0.0480000000002 0
-2.96210168068e-14 -0.0480000000002 0
-2.61332335148e-14 -0.0480000000002 0
-2.25147995914e-14 -0.0480000000002 0
-1.87775592585e-14 -0.0480000000002 0
-1.49575902e-14 -0.0480000000002 0
-1.10626410424e-14 -0.0480000000002 0
-7.11252158031e-15 -0.0480000000002 0
-3.12338622694e-15 -0.0480000000002 0
8.8053636582e-16 -0.0480000000002 0
4.88043952617e-15 -0.0480000000002 0
8.84254357282e-15 -0.0480000000002 0
1.2762950309e-14 -0.0480000000002 0
1.66222887637e-14 -0.0480000000002 0
2.0381366936e-14 -0.0480000000002 0
2.40485799445e-14 -0.0480000000002 0
2.75954677059e-14 -0.0480000000002 0
3.09945418297e-14 -0.0480000000002 0
3.42406109046e-14 -0.0480000000002 0
3.73114241702e-14 -0.0480000000002 0
4.01877891817e-14 -0.0480000000002 0
4.28922420869e-14 -0.0480000000001 0
4.53663432563e-14 -0.0480000000001 0
4.76213570443e-14 -0.0480000000001 0
4.96312714184e-14 -0.0480000000001 0
5.14277450703e-14 -0.0480000000001 0
5.29540914863e-14 -0.0480000000001 0
5.4249438389e-14 -0.0480000000001 0
5.52665624077e-14 -0.0480000000001 0
5.60548621218e-14 -0.0480000000001 0
5.65493854419e-14 -0.0480000000001 0
5.6814331493e-14 -0.0480000000001 0
5.67984248942e-14 -0.0480000000001 0
5.65621282899e-14 -0.0480000000001 0
5.60648351688e-14 -0.0480000000001 0
5.53300169743e-14 -0.0480000000001 0
5.43331886939e-14 -0.0480000000001 0
5.31349872819e-14 -0.0480000000001 0
5.17093194435e-14 -0.0480000000001 0
5.0050004917e-14 -0.0480000000001 0
4.82188475374e-14 -0.0480000000001 0
4.62116324175e-14 -0.0480000000001 0
4.40570668604e-14 -0.0480000000001 0
4.17114990712e-14 -0.0480000000001 0
3.92583153242e-14 -0.048 0
3.67121203956e-14 -0.048 0
3.40631143167e-14 -0.048 0
3.37698365256e-14 -0.0480000000001 0
-5.45624836196e-14 -0.0480000000002 0
4.22637060157e-15 -0.0480000000002 0
-3.25128402266e-14 -0.0480000000002 0
2.76709448605e-14 -0.0480000000001 0
-4.44516171539e-14 -0.0480000000001 0
3.26873499646e-14 -0.0480000000002 0
-7.75840694034e-15 -0.0480000000002 0
1.83536370152e-14 -0.0480000000002 0
3.88948160674e-14 -0.0480000000001 0
-4.57700577564e-14 -0.0480000000001 0
4.27018388556e-15 -0.0480000000003 0
-3.53197255483e-14 -0.0480000000001 0
8.84990190085e-15 -0.048 0
-2.52688886624e-14 -0.0480000000002 0
-3.9621533161e-14 -0.0480000000002 0
3.46765003144e-14 -0.0480000000002 0
4.22239341065e-14 -0.0480000000001 0
-4.78250773769e-14 -0.0480000000001 0
3.7966841789e-14 -0.0480000000001 0
-2.97819914736e-14 -0.0480000000002 0
2.87921110859e-14 -0.0480000000001 0
-4.270875902e-14 -0.0480000000001 0
6.42146752476e-15 -0.0480000000002 0
2.92156464085e-14 -0.0480000000002 0
4.54169713089e-14 -0.0480000000001 0
-1.32292337578e-14 -0.0480000000002 0
-8.86740433951e-14 -0.0480000000002 0
-4.69477866443e-14 -0.0480000000001 0
2.82436716679e-14 -0.0480000000002 0
4.61766486117e-14 -0.0480000000001 0
1.75753313568e-14 -0.048 0
-3.70070360184e-14 -0.0480000000001 0
3.45485492189e-14 -0.0480000000001 0
-4.50586589088e-14 -0.0480000000002 0
-1.54960096331e-14 -0.0480000000002 0
2.0701164016e-14 -0.0480000000002 0
9.00450887485e-15 -0.0480000000002 0
-3.45224873337e-14 -0.0480000000002 0
4.34685082322e-14 -0.0480000000001 0
4.23525056122e-15 -0.0480000000002 0
-5.55045287621e-14 -0.0480000000002 0
1.86808762557e-14 -0.0480000000002 0
-5.0091727118e-14 -0.0480000000001 0
4.5342768627e-14 -0.0480000000001 0
4.55367799751e-14 -0.0480000000002 0
3.26549255343e-14 -0.0480000000001 0
2.47281480658e-14 -0.0480000000001 0
-4.71903640599e-14 -0.0480000000001 0
-4.73019435272e-14 -0.0480000000001 0
-2.68408474778e-15 -0.0480000000002 0
3.61406128111e-14 -0.0480000000001 0
-4.70828281086e-14 -0.0480000000001 0
-4.06153090267e-14 -0.0480000000002 0
-2.05958208779e-14 -0.0480000000002 0
3.73277503763e-14 -0.0480000000001 0
2.3977767675e-14 -0.0480000000001 0
-5.62697808238e-14 -0.0480000000001 0
-2.31372501651e-14 -0.0480000000002 0
2.67139312735e-14 -0.0480000000002 0
-2.68390383145e-14 -0.0480000000001 0
-1.2660900067e-14 -0.048 0
5.85049188006e-15 -0.048 0
-3.41254395969e-15 -0.048 0
3.76610060215e-14 -0.0480000000002 0
-4.39610886224e-14 -0.0480000000002 0
-2.84792820836e-14 -0.0480000000001 0
4.8612075122e-14 -0.0480000000001 0
-3.6622253675e-16 -0.048 0
8.69986558394e-14 -0.0480000000003 0
-3.2622040835e-14 -0.0480000000002 0
-3.62583615709e-14 -0.0480000000002 0
-5.0746877526e-14 -0.0480000000001 0
4.30630664821e-14 -0.0480000000001 0
3.64548594082e-14 -0.0480000000001 0
1.18892303095e-14 -0.0480000000002 0
3.17510200098e-14 -0.0480000000002 0
-8.7953083515e-14 -0.0480000000004 0
8.1379606268e-15 -0.0480000000002 0
-4.49161139244e-14 -0.0480000000001 0
3.12226898537e-14 -0.0480000000001 0
1.6157872427e-14 -0.0480000000001 0
2.12435443228e-14 -0.048 0
-3.78332743084e-14 -0.0480000000001 0
-1.16115872769e-14 -0.0480000000002 0
-1.70109849288e-14 -0.0480000000002 0
3.58888340162e-14 -0.0480000000001 0
-3.84826555246e-14 -0.0480000000001 0
1.84934621593e-14 -0.0480000000002 0
-4.67874235278e-14 -0.0480000000001 0
-4.33728874206e-14 -0.0480000000002 0
-5.08854097629e-14 -0.0480000000001 0
4.92254445794e-14 -0.0480000000001 0
-2.36157287538e-14 -0.0480000000003 0
3.45918763794e-14 -0.0480000000001 0
4.11468723729e-14 -0.0480000000001 0
-4.53335652699e-14 -0.0480000000001 0
3.36435386829e-14 -0.0480000000001 0
-2.6529321143e-15 -0.0480000000002 0
2.75873604616e-14 -0.0480000000002 0
2.66249223606e-14 -0.0480000000002 0
-1.66412484894e-14 -0.0480000000002 0
-2.96100546768e-14 -0.0480000000002 0
3.4527805976e-14 -0.0480000000002 0
4.37708805366e-14 -0.0480000000001 0
-4.49452390092e-14 -0.0480000000002 0
-4.81739222102e-14 -0.0480000000001 0
-4.07851693578e-14 -0.0480000000002 0
-4.97381620827e-14 -0.0480000000001 0
5.12214047258e-14 -0.0480000000001 0
4.92273405551e-14 -0.0480000000001 0
-6.4893417469e-15 -0.0480000000002 0
5.71049349926e-14 -0.0480000000003 0
1.42312301693e-14 -0.0480000000002 0
3.75231951605e-14 -0.0480000000001 0
3.25564139498e-14 -0.0480000000001 0
6.44396616327e-15 -0.048 0
-4.16275206936e-14 -0.0480000000001 0
2.50848443494e-14 -0.0480000000001 0
5.06801985746e-15 -0.0480000000002 0
-4.7396492536e-14 -0.0480000000001 0
-9.1520952299e-15 -0.0480000000002 0
4.25585918517e-14 -0.0480000000001 0
3.61273497889e-14 -0.0480000000001 0
2.70725696209e-14 -0.048 0
-4.08110407541e-14 -0.0480000000001 0
-4.45085571836e-14 -0.0480000000002 0
-6.33986213996e-14 -0.0480000000002 0
2.07911905608e-14 -0.0480000000002 0
-4.67673965174e-14 -0.0480000000001 0
-3.86814478509e-14 -0.0480000000002 0
-2.39609217257e-14 -0.0480000000002 0
2.95566258734e-14 -0.0480000000002 0
-3.03063604661e-14 -0.0480000000001 0
1.03788081456e-14 -0.048 0
3.30406771372e-15 -0.0480000000002 0
-4.56083495674e-14 -0.0480000000001 0
2.79287605817e-14 -0.0480000000001 0
1.32126706216e-14 -0.0480000000002 0
3.43072550855e-14 -0.0480000000001 0
2.78093305756e-14 -0.0480000000002 0
2.89008687424e-14 -0.0480000000003 0
2.11385446116e-14 -0.0480000000001 0
-4.08443301507e-14 -0.0480000000001 0
3.8173108339e-14 -0.0480000000002 0
2.68247652898e-14 -0.0480000000001 0
-2.38744203352e-14 -0.0480000000002 0
-4.7958093315e-14 -0.0480000000001 0
4.07713446237e-14 -0.0480000000001 0
-5.24498906841e-14 -0.0480000000001 0
4.73129268314e-14 -0.0480000000001 0
-6.72388770106e-17 -0.0480000000002 0
3.46558698997e-14 -0.0480000000001 0
-7.35360396809e-15 -0.048 0
-5.36601579973e-15 -0.0480000000002 0
1.99685715015e-14 -0.0480000000002 0
-4.28773024668e-15 -0.048 0
1.23504703674e-14 -0.0480000000002 0
-1.97418640352e-14 -0.0480000000002 0
-1.07103126884e-13 -0.0480000000002 0
-3.14544802857e-14 -0.0480000000002 0
-4.37532965082e-14 -0.0480000000002 0
-5.70367500977e-14 -0.0480000000003 0
4.48649937473e-14 -0.0480000000001 0
-3.58973862555e-14 -0.0480000000002 0
4.75955859958e-14 -0.0480000000001 0
-5.03394748963e-14 -0.0480000000001 0
4.14580754301e-14 -0.0480000000001 0
3.19068938004e-14 -0.0480000000002 0
-9.97477847242e-15 -0.0480000000002 0
3.21591132154e-14 -0.0480000000002 0
-2.587834104e-14 -0.0480000000002 0
-4.59586658185e-14 -0.0480000000001 0
-4.31030232348e-14 -0.0480000000002 0
3.83031154945e-14 -0.0480000000001 0
-5.80827224241e-14 -0.0480000000001 0
3.27441430688e-14 -0.0480000000001 0
3.11435134283e-14 -0.0480000000001 0
1.7187629069e-14 -0.0480000000002 0
-3.84373423647e-14 -0.0480000000002 0
-3.37642770447e-14 -0.0480000000001 0
1.5324957798e-14 -0.048 0
-2.83982201306e-14 -0.0480000000002 0
3.86742194653e-14 -0.0480000000001 0
-1.36127847065e-14 -0.0480000000002 0
-5.75956151044e-15 -0.048 0
2.33451782015e-15 -0.0480000000002 0
-1.67701723105e-14 -0.048 0
-7.64128788223e-16 -0.048 0
-3.85233954395e-14 -0.0480000000002 0
4.47950272873e-14 -0.0480000000001 0
-2.72608999269e-15 -0.048 0
-5.38148903749e-14 -0.0480000000001 0
-4.6264828717e-14 -0.0480000000001 0
-4.41526728629e-14 -0.0480000000001 0
-2.32912671929e-14 -0.0480000000001 0
-4.86020127378e-14 -0.0480000000002 0
3.56248041751e-14 -0.0480000000001 0
1.04753434988e-14 -0.0480000000001 0
1.02314500365e-15 -0.048 0
1.83850189601e-14 -0.0480000000001 0
3.87834550692e-14 -0.0480000000001 0
-4.16335706438e-14 -0.0480000000001 0
-1.31639682438e-14 -0.0480000000002 0
-4.24619294626e-14 -0.048000000001 0
5.88800424063e-16 -0.0480000000003 0
2.60928549339e-14 -0.0480000000002 0
-5.07700326076e-14 -0.0480000000001 0
2.07496435269e-14 -0.0480000000002 0
5.2066164058e-14 -0.0480000000001 0
1.26877399094e-14 -0.048 0
-1.97958364467e-15 -0.0480000000002 0
-4.82146057552e-14 -0.0480000000001 0
3.82436931372e-14 -0.0480000000001 0
-5.27783165905e-14 -0.0480000000001 0
4.993273551e-14 -0.0480000000001 0
-5.4401427071e-14 -0.0480000000002 0
-4.63733126759e-14 -0.0480000000001 0
2.61438771767e-15 -0.0480000000002 0
-4.13733092068e-14 -0.0480000000003 0
-4.96006746809e-14 -0.0480000000001 0
4.21910961702e-14 -0.0480000000001 0
-3.46090184155e-14 -0.0480000000001 0
2.22855413019e-14 -0.0480000000001 0
2.85372974415e-14 -0.0480000000002 0
-4.84118148297e-14 -0.0480000000001 0
3.81705787347e-14 -0.0480000000001 0
1.22719228498e-14 -0.0480000000001 0
-4.40101045314e-14 -0.0480000000001 0
-4.29960937542e-14 -0.0480000000001 0
3.05832177997e-14 -0.048 0
-2.35421619712e-14 -0.0480000000002 0
1.20795350848e-14 -0.0480000000002 0
2.80119425934e-15 -0.048 0
-2.40787871408e-14 -0.0480000000001 0
-4.36192016379e-14 -0.0480000000002 0
-7.8052448092e-15 -0.0480000000002 0
3.93395996416e-15 -0.0480000000002 0
1.26827581538e-14 -0.0480000000002 0
3.41895663509e-14 -0.0480000000001 0
3.86102904733e-14 -0.0480000000001 0
-3.09754887375e-14 -0.0480000000002 0
3.12999864773e-14 -0.0480000000002 0
4.00672431187e-14 -0.0480000000001 0
2.90610972501e-14 -0.0480000000001 0
-4.44825545617e-14 -0.0480000000001 0
3.13770314378e-14 -0.0480000000001 0
4.88121519473e-14 -0.0480000000002 0
-4.66559397995e-14 -0.0480000000002 0
-3.5755833481e-14 -0.0480000000002 0
4.05416950799e-14 -0.0480000000001 0
-7.21960827057e-14 -0.0480000000002 0
2.08265546103e-14 -0.0480000000005 0
-4.55432717506e-14 -0.0480000000001 0
5.17678760538e-14 -0.0480000000001 0
-4.57586793379e-14 -0.0480000000001 0
4.26921984704e-14 -0.0480000000001 0
-2.50831590061e-14 -0.0480000000001 0
5.20947814979e-15 -0.048 0
-2.84231360944e-14 -0.0480000000002 0
3.53066139406e-14 -0.0480000000001 0
-3.59773286651e-14 -0.0480000000002 0
3.39338464763e-14 -0.0480000000001 0
2.43844403252e-14 -0.0480000000002 0
3.39979376717e-14 -0.0480000000002 0
2.34508365898e-14 -0.048 0
-3.8464554069e-14 -0.0480000000001 0
-4.8822378712e-14 -0.0480000000001 0
2.32907257486e-14 -0.0480000000002 0
4.64760171074e-14 -0.0480000000001 0
-1.80880698089e-14 -0.0480000000002 0
6.51161402038e-14 -0.0480000000002 0
-2.9314378718e-15 -0.048 0
3.41983779345e-14 -0.0480000000001 0
-4.29034215305e-14 -0.0480000000002 0
2.43070129087e-14 -0.0480000000001 0
-4.0321714049e-14 -0.0480000000001 0
9.5655426126e-15 -0.048 0
-3.33622328265e-14 -0.0480000000001 0
2.5093494278e-14 -0.0480000000002 0
3.82716040904e-14 -0.0480000000001 0
-1.29675700673e-14 -0.0480000000002 0
1.01594340637e-14 -0.0480000000002 0
1.41438993473e-14 -0.0480000000002 0
-4.92063631075e-14 -0.0480000000001 0
-4.70699065226e-14 -0.0480000000001 0
-5.29006423276e-14 -0.0480000000001 0
4.67790115824e-14 -0.0480000000001 0
1.06677252398e-14 -0.0480000000002 0
2.32472228693e-14 -0.0480000000002 0
1.60861154452e-14 -0.0480000000002 0
-6.14975223221e-15 -0.048 0
-4.63552170628e-14 -0.0480000000001 0
3.44510411121e-14 -0.0480000000001 0
3.33898088891e-14 -0.0480000000001 0
-9.23371655492e-15 -0.048 0
-1.30109195544e-14 -0.048 0
3.06585867054e-14 -0.0480000000001 0
-6.75418622344e-14 -0.0480000000001 0
-2.21813465445e-14 -0.0480000000002 0
3.24227624574e-14 -0.0480000000002 0
3.58698258912e-14 -0.0480000000001 0
3.32270420883e-14 -0.0480000000002 0
3.18567035158e-14 -0.0480000000002 0
-3.67637886882e-14 -0.0480000000002 0
-4.25211899316e-14 -0.0480000000001 0
-1.87677093965e-14 -0.0480000000002 0
-2.48778887092e-14 -0.0480000000002 0
-4.31584901029e-14 -0.0480000000001 0
2.84650301744e-14 -0.0480000000001 0
-5.22378423054e-14 -0.0480000000001 0
4.48270687603e-14 -0.0480000000001 0
2.3094609962e-14 -0.0480000000002 0
3.70920627721e-14 -0.0480000000001 0
3.26768538094e-14 -0.0480000000001 0
3.04876139958e-14 -0.0480000000002 0
-4.19763398396e-14 -0.0480000000002 0
-1.17585999487e-14 -0.0480000000002 0
-4.67581930594e-14 -0.0480000000001 0
-4.31072019254e-14 -0.0480000000001 0
3.02620714534e-14 -0.0480000000001 0
7.41353432625e-14 -0.0480000000002 0
-4.12012668973e-14 -0.0480000000002 0
-4.55795888854e-14 -0.0480000000001 0
-4.810868005e-14 -0.0480000000001 0
1.76812079126e-14 -0.0480000000002 0
3.38489691907e-14 -0.0480000000002 0
-5.25086363994e-14 -0.0480000000001 0
4.06844344384e-14 -0.0480000000001 0
-3.91902761868e-15 -0.048 0
-3.35499554099e-14 -0.0480000000002 0
4.79433656653e-14 -0.0480000000001 0
-9.98992948686e-14 -0.0480000000003 0
-2.42824772382e-15 -0.0480000000002 0
4.50310727993e-14 -0.0480000000001 0
-2.02668899265e-15 -0.0480000000002 0
-3.91514847512e-14 -0.0480000000002 0
4.77140465346e-14 -0.0480000000001 0
-4.08050670427e-14 -0.0480000000002 0
5.04303420184e-14 -0.0480000000001 0
7.48768677336e-15 -0.0480000000002 0
9.67854295785e-15 -0.0480000000002 0
7.02116817925e-15 -0.0480000000002 0
1.8397762857e-14 -0.048 0
-3.54796398862e-14 -0.0480000000001 0
-2.70797257059e-14 -0.0480000000002 0
-2.03295330592e-14 -0.0480000000002 0
-1.60247686044e-13 -0.0480000000003 0
3.89128683297e-14 -0.0480000000002 0
4.38499198329e-14 -0.0480000000001 0
-4.4315042196e-14 -0.0480000000001 0
-4.80778795051e-14 -0.0480000000001 0
-1.34992452996e-14 -0.0480000000002 0
5.277685012e-14 -0.0480000000001 0
5.3677502291e-14 -0.0480000000001 0
1.9815297447e-14 -0.0480000000001 0
2.4909456235e-14 -0.0480000000001 0
-2.24966002083e-15 -0.0480000000002 0
2.09805144273e-15 -0.0480000000002 0
2.9300913603e-14 -0.0480000000002 0
-5.38002725868e-15 -0.0480000000002 0
-1.51219473212e-14 -0.0480000000002 0
3.03233112183e-14 -0.0480000000001 0
2.4077867629e-14 -0.048 0
-3.94498872265e-14 -0.0480000000001 0
-5.87304120948e-14 -0.0480000000002 0
2.13437351278e-14 -0.0480000000001 0
-3.92114065039e-14 -0.0480000000001 0
3.91410641615e-14 -0.0480000000003 0
-3.23484036411e-14 -0.0480000000002 0
4.08408098611e-15 -0.048 0
1.63489819986e-14 -0.0480000000002 0
2.24465855446e-14 -0.0480000000002 0
-5.30315434825e-14 -0.0480000000001 0
5.26705497152e-14 -0.0480000000001 0
-4.35642875233e-14 -0.0480000000001 0
2.39474854224e-14 -0.0480000000002 0
4.21944713897e-14 -0.0480000000001 0
-2.84774543123e-14 -0.0480000000002 0
1.79230364014e-14 -0.0480000000001 0
-5.41194558764e-15 -0.0480000000002 0
-2.23061220626e-14 -0.0480000000002 0
-1.29767770209e-14 -0.0480000000002 0
5.99781229469e-15 -0.0480000000002 0
-4.44998552956e-14 -0.0480000000001 0
-2.59941545967e-14 -0.0480000000002 0
1.73844243907e-14 -0.0480000000002 0
-6.36900176096e-15 -0.0480000000002 0
-2.1859290888e-14 -0.0480000000002 0
-3.73559172186e-14 -0.0480000000002 0
-4.93859796468e-14 -0.0480000000001 0
4.91896684802e-14 -0.0480000000001 0
4.66357837042e-14 -0.0480000000001 0
1.08565825827e-14 -0.0480000000002 0
-1.6663054456e-15 -0.0480000000002 0
-3.29464901392e-14 -0.0480000000002 0
1.69505457105e-14 -0.0480000000001 0
-3.80264160448e-14 -0.0480000000001 0
-5.85625551234e-15 -0.048 0
3.55369260355e-14 -0.0480000000001 0
2.54159118355e-14 -0.0480000000001 0
2.09528459162e-15 -0.0480000000002 0
2.90318498634e-14 -0.0480000000002 0
-4.43785479262e-14 -0.0480000000001 0
3.18275230554e-14 -0.0480000000001 0
-4.68125161667e-14 -0.0480000000001 0
3.58427004411e-14 -0.048 0
2.20751389333e-14 -0.0480000000002 0
-4.66572978928e-14 -0.0480000000001 0
-2.69590075662e-14 -0.0480000000002 0
1.29103266228e-14 -0.0480000000001 0
3.58737513083e-14 -0.0480000000001 0
3.55405140993e-14 -0.0480000000002 0
2.78128294189e-14 -0.0480000000001 0
-4.14723649429e-14 -0.0480000000001 0
2.8549584235e-14 -0.048 0
4.4867074545e-14 -0.0480000000002 0
3.59028520574e-14 -0.0480000000001 0
-4.11697674898e-14 -0.0480000000002 0
-4.6449943439e-14 -0.0480000000001 0
3.48875398752e-14 -0.0480000000001 0
-4.84831674971e-14 -0.0480000000001 0
-6.22078769085e-16 -0.0480000000002 0
4.28245512198e-14 -0.0480000000001 0
2.57185171129e-14 -0.0480000000002 0
9.72518368104e-16 -0.0480000000002 0
-4.7937654051e-14 -0.0480000000002 0
4.73536232937e-14 -0.0480000000001 0
-5.00001813455e-14 -0.0480000000001 0
4.68343943932e-14 -0.0480000000001 0
4.24253880303e-14 -0.0480000000002 0
-4.48670281939e-14 -0.0480000000001 0
-8.40915738317e-16 -0.048 0
-5.08373333689e-14 -0.0480000000001 0
4.18466987223e-14 -0.0480000000001 0
-6.61035309246e-15 -0.0480000000002 0
-5.0404238554e-14 -0.0480000000001 0
5.34570900459e-14 -0.0480000000001 0
-9.27670488258e-15 -0.0480000000002 0
-1.86893521802e-14 -0.0480000000002 0
-5.45603733875e-14 -0.0480000000001 0
-4.50810326099e-14 -0.0480000000001 0
-4.00820293179e-14 -0.0480000000003 0
3.36180752066e-14 -0.0480000000001 0
2.3333753942e-14 -0.0480000000002 0
4.40306826824e-14 -0.0480000000001 0
1.59352374049e-14 -0.0480000000002 0
1.8394342071e-14 -0.048 0