# vtk DataFile Version 2.0
Generated with Solid Solver
ASCII
DATASET UNSTRUCTURED_GRID
POINTS 856 float 
0.0 3.5 0.0
1.6 3.5 0.0
1.6 4.0 0.0
0.0 4.0 0.0
0.0695652173912 3.5 0.0
0.139130434782 3.5 0.0
0.208695652174 3.5 0.0
0.278260869565 3.5 0.0
0.347826086956 3.5 0.0
0.417391304347 3.5 0.0
0.486956521738 3.5 0.0
0.556521739129 3.5 0.0
0.62608695652 3.5 0.0
0.695652173911 3.5 0.0
0.765217391302 3.5 0.0
0.834782608694 3.5 0.0
0.904347826085 3.5 0.0
0.973913043477 3.5 0.0
1.04347826087 3.5 0.0
1.11304347826 3.5 0.0
1.18260869565 3.5 0.0
1.25217391304 3.5 0.0
1.32173913043 3.5 0.0
1.39130434783 3.5 0.0
1.46086956522 3.5 0.0
1.53043478261 3.5 0.0
1.6 3.56430812594 0.0
1.6 3.62270835268 0.0
1.6 3.6757434324 0.0
1.6 3.7239062376 0.0
1.6 3.76764438351 0.0
1.6 3.80736436404 0.0
1.6 3.84343531219 0.0
1.6 3.87619247117 0.0
1.6 3.90594026707 0.0
1.6 3.93295517284 0.0
1.6 3.95748825478 0.0
1.6 3.97976750982 0.0
1.58000000587 4.0 0.0
1.55999996633 4.0 0.0
1.54000002214 4.0 0.0
1.51999997198 4.0 0.0
1.50000000455 4.0 0.0
1.48000000216 4.0 0.0
1.45999997931 4.0 0.0
1.44000002484 4.0 0.0
1.41999997044 4.0 0.0
1.40000002096 4.0 0.0
1.37999999963 4.0 0.0
1.35999999626 4.0 0.0
1.34000002179 4.0 0.0
1.31999997343 4.0 0.0
1.3000000318 4.0 0.0
1.27999998783 4.0 0.0
1.26000000202 4.0 0.0
1.24000001295 4.0 0.0
1.21999998074 4.0 0.0
1.20000003685 4.0 0.0
1.17999998163 4.0 0.0
1.16000001473 4.0 0.0
1.14000000469 4.0 0.0
1.11999999139 4.0 0.0
1.10000003625 4.0 0.0
1.07999997877 4.0 0.0
1.06000002802 4.0 0.0
1.04000000338 4.0 0.0
1.02000000764 4.0 0.0
1.00000002986 4.0 0.0
0.979999980237 4.0 0.0
0.960000035522 4.0 0.0
0.939999990881 4.0 0.0
0.920000014619 4.0 0.0
0.900000017903 4.0 0.0
0.879999986222 4.0 0.0
0.860000037278 4.0 0.0
0.839999982352 4.0 0.0
0.820000022783 4.0 0.0
0.800000000002 4.0 0.0
0.779999977222 4.0 0.0
0.760000017652 4.0 0.0
0.739999962726 4.0 0.0
0.720000013782 4.0 0.0
0.699999982101 4.0 0.0
0.679999985385 4.0 0.0
0.660000009123 4.0 0.0
0.639999964482 4.0 0.0
0.620000019766 4.0 0.0
0.599999970141 4.0 0.0
0.57999999236 4.0 0.0
0.559999996622 4.0 0.0
0.539999971983 4.0 0.0
0.520000021235 4.0 0.0
0.499999963756 4.0 0.0
0.480000008612 4.0 0.0
0.459999995315 4.0 0.0
0.439999985272 4.0 0.0
0.420000018371 4.0 0.0
0.39999996315 4.0 0.0
0.380000019261 4.0 0.0
0.359999987052 4.0 0.0
0.339999997986 4.0 0.0
0.320000012172 4.0 0.0
0.299999968206 4.0 0.0
0.280000026575 4.0 0.0
0.259999978213 4.0 0.0
0.240000003742 4.0 0.0
0.220000000371 4.0 0.0
0.199999979041 4.0 0.0
0.180000029557 4.0 0.0
0.159999975162 4.0 0.0
0.140000020694 4.0 0.0
0.119999997846 4.0 0.0
0.0999999954514 4.0 0.0
0.0800000280232 4.0 0.0
0.0599999778571 4.0 0.0
0.0400000336732 4.0 0.0
0.0199999941324 4.0 0.0
0.0 3.97976750982 0.0
0.0 3.95748825478 0.0
0.0 3.93295517284 0.0
0.0 3.90594026707 0.0
0.0 3.87619247117 0.0
0.0 3.84343531219 0.0
0.0 3.80736436404 0.0
0.0 3.76764438351 0.0
0.0 3.7239062376 0.0
0.0 3.6757434324 0.0
0.0 3.62270835268 0.0
0.0 3.56430812594 0.0
0.249757905714 3.75212552678 0.0
1.35000000902 3.74954526597 0.0
0.488714190926 3.75947467509 0.0
0.727445026698 3.75983525744 0.0
0.962900270309 3.76055270856 0.0
1.17161197633 3.81755162829 0.0
0.130754031542 3.86878251069 0.0
1.46924596846 3.86878251069 0.0
0.369913852535 3.84868154079 0.0
0.603236233099 3.84763103091 0.0
0.843402107212 3.84736931152 0.0
1.05041705507 3.86611282467 0.0
0.250539323282 3.87785527135 0.0
1.34882231626 3.87787871523 0.0
0.468661896861 3.89189320321 0.0
0.704258117309 3.89639128976 0.0
0.94963922804 3.89654080835 0.0
1.25000000748 3.89875296068 0.0
1.12879020517 3.91059303421 0.0
0.548928478218 3.91905583534 0.0
0.7889268651 3.91906062813 0.0
0.0712526194949 3.93011432704 0.0
1.52874738051 3.93011432704 0.0
1.4740071133 3.74293106904 0.0
0.125992886699 3.74293106904 0.0
0.329956761073 3.92118145982 0.0
1.09412206522 3.66725831207 0.0
0.190000004299 3.92542384899 0.0
1.41098423528 3.92728100222 0.0
0.629999992124 3.92414139091 0.0
0.87000001175 3.92414140592 0.0
0.853391941071 3.71944243214 0.0
0.610032822379 3.72536074396 0.0
0.41090315692 3.92892991009 0.0
0.370435019193 3.7251305208 0.0
1.01000001875 3.93130199947 0.0
1.22823348571 3.68694249365 0.0
1.18894423177 3.93487447818 0.0
1.31063576122 3.93502724255 0.0
0.129927636183 3.94112156482 0.0
1.47007236382 3.94112156482 0.0
1.07646504896 3.76194504855 0.0
1.07000000339 3.94017719684 0.0
0.270000002394 3.93875928556 0.0
1.26759839792 3.80243333593 0.0
0.770332946246 3.83880063275 0.0
0.530342720064 3.83880306325 0.0
0.189898092614 3.63474333735 0.0
1.4101772205 3.6313147556 0.0
0.942883893479 3.62966700486 0.0
0.510631148905 3.62429064243 0.0
0.754670889573 3.63369080225 0.0
0.489999986184 3.94463854908 0.0
0.732500655853 3.9452729887 0.0
0.193627936713 3.81528931126 0.0
1.40183871842 3.81461096917 0.0
0.928721275957 3.94715071018 0.0
0.0604617896557 3.86281267064 0.0
1.53953821034 3.86281267065 0.0
1.25036152032 3.94913766834 0.0
0.30096552553 3.81141484704 0.0
0.297089357677 3.66359682597 0.0
0.394212311705 3.61316974741 0.0
0.831051681923 3.94633984116 0.0
0.592085081305 3.94901138542 0.0
0.669405291514 3.95495209798 0.0
1.3611855791 3.94637621082 0.0
0.928496698914 3.82436133158 0.0
0.444093171593 3.8271987226 0.0
0.683378885111 3.8234871366 0.0
0.372430737197 3.95235208784 0.0
1.19348789949 3.87019408468 0.0
1.15124363553 3.95467023547 0.0
0.229287653728 3.96038323295 0.0
0.646635519079 3.61231195482 0.0
0.986819459779 3.84973028271 0.0
1.11214815433 3.84770266014 0.0
1.50610225987 3.6604664246 0.0
0.0938977401332 3.6604664246 0.0
0.531976760298 3.96138656711 0.0
0.451361041931 3.96112773652 0.0
0.771976835888 3.96138886125 0.0
1.53311213884 3.79435404356 0.0
0.066887861162 3.79435404356 0.0
0.970836553066 3.9620233382 0.0
0.311702426505 3.96111572975 0.0
1.31698094247 3.6658628839 0.0
1.11177843379 3.95948388532 0.0
1.15003411964 3.72957279566 0.0
0.890058924798 3.96133576813 0.0
0.169108880648 3.96040269401 0.0
1.42850737314 3.96465656678 0.0
0.0426347993992 3.9610175717 0.0
1.5573652006 3.9610175717 0.0
1.28993057938 3.85776473604 0.0
1.34652710411 3.82072629166 0.0
0.897316840472 3.87585124602 0.0
0.814484972147 3.79171515708 0.0
0.573290986674 3.7879873938 0.0
1.02164717476 3.69631051635 0.0
0.41798215839 3.87594988344 0.0
1.18469655214 3.6045863568 0.0
0.657426542805 3.87734841349 0.0
0.0893439701605 3.9657484063 0.0
1.51065602984 3.9657484063 0.0
0.850202761783 3.61862953305 0.0
0.185775988195 3.86980628439 0.0
1.41422401181 3.86980628439 0.0
0.305957202498 3.87340573583 0.0
0.629999992124 3.96272981278 0.0
0.686026569054 3.68766751472 0.0
1.03220081924 3.96436031967 0.0
0.445441337222 3.69456289967 0.0
1.33308537187 3.96770341358 0.0
1.0249206042 3.60512275769 0.0
0.128645746764 3.81165411571 0.0
1.47135425324 3.81165411571 0.0
1.29077706219 3.96625078806 0.0
1.21302440104 3.96491551313 0.0
0.373320303365 3.89968789902 0.0
0.409457647309 3.96502881891 0.0
1.39076199588 3.96614348387 0.0
1.2156032112 3.76624353786 0.0
0.383301616321 3.78976397621 0.0
0.593246012246 3.8948346816 0.0
0.833004203108 3.89475034107 0.0
0.187583903859 3.70688411961 0.0
1.41241609614 3.70688411961 0.0
1.08573330585 3.89673930733 0.0
1.04303343403 3.81530385578 0.0
0.103644791029 3.90516202075 0.0
1.49635520897 3.90516202075 0.0
1.23586605501 3.85112068621 0.0
0.921814270996 3.70213058021 0.0
0.532219762185 3.7029333087 0.0
1.28217045716 3.7375098981 0.0
0.779621693208 3.70806977531 0.0
0.998890529268 3.88397615296 0.0
0.659406618131 3.76469373474 0.0
0.230043799244 3.91599372373 0.0
1.53690667654 3.72637971331 0.0
0.0630933234627 3.72637971331 0.0
0.153148105836 3.90639761309 0.0
1.4478092366 3.90500627713 0.0
0.512139854501 3.90538519137 0.0
0.750930702019 3.90340708 0.0
0.0409150717909 3.90046251393 0.0
1.55908492821 3.90046251393 0.0
0.702096631597 3.96656725638 0.0
0.246204062466 3.82734823738 0.0
0.872012730916 3.80079945556 0.0
0.313419524246 3.75328100976 0.0
1.26305184675 3.57725747237 0.0
1.04341944162 3.90846795586 0.0
0.697725469476 3.93030230037 0.0
0.27003033309 3.96477332623 0.0
0.632456188669 3.80120134001 0.0
0.55988813035 3.96676596088 0.0
0.798125231733 3.9668778541 0.0
0.861599835739 3.96514225679 0.0
0.130196681328 3.96566148827 0.0
1.46980331867 3.96566148827 0.0
0.337465698618 3.96873835045 0.0
1.10690030388 3.57445060302 0.0
1.07038768144 3.96631210642 0.0
0.201908835349 3.96783542832 0.0
1.17640357301 3.96795841043 0.0
0.482502283815 3.8454083814 0.0
1.37723451734 3.90442225885 0.0
0.722497886517 3.84543272537 0.0
0.254749007352 3.57960328731 0.0
0.449206209982 3.91785378051 0.0
0.907803563184 3.91575967116 0.0
0.997592319531 3.96832081731 0.0
1.3597087328 3.59165409162 0.0
0.797785363131 3.87112617582 0.0
0.557788209884 3.87112741711 0.0
0.133223775006 3.57024633267 0.0
1.46673023696 3.57019175074 0.0
0.296361477075 3.90524448543 0.0
1.29555045611 3.90092076583 0.0
1.11951450862 3.79592056714 0.0
0.341558640376 3.57546927501 0.0
0.974255514016 3.92370320024 0.0
0.664786082443 3.91707165091 0.0
1.1442561544 3.86460464827 0.0
0.430695849932 3.74774845865 0.0
1.22439218721 3.92431164104 0.0
0.917330800791 3.76752811157 0.0
0.0995806821614 3.83759752714 0.0
1.50041931784 3.83759752714 0.0
0.586492545959 3.6571718064 0.0
1.16809690663 3.90376349956 0.0
0.490525946651 3.9687439861 0.0
0.170108846494 3.77025381333 0.0
0.726723612771 3.96611364881 0.0
1.42998397347 3.77014833166 0.0
1.55978981314 3.82099569701 0.0
0.0402101868575 3.82099569701 0.0
1.10043652243 3.92805072974 0.0
1.34111814411 3.91924529479 0.0
1.27430066613 3.93505265881 0.0
0.56431092584 3.57086686051 0.0
0.930516510487 3.96969091611 0.0
1.17713743504 3.67180033503 0.0
0.801256410508 3.5635758738 0.0
1.37979186382 3.84566323689 0.0
1.02277822921 3.7577258162 0.0
0.252009847995 3.68167957306 0.0
0.0497138210057 3.58866012032 0.0
1.55028617899 3.58866012032 0.0
0.466046622144 3.57331739513 0.0
0.343019074867 3.81481221655 0.0
0.0645235269233 3.96909610548 0.0
1.53547647308 3.96909610548 0.0
0.0310141903995 3.92955737583 0.0
[...]
POINT_DATA 856
VECTORS Displacement float
0.0 0.0 0
0.0 0.0 0
0.00886489841059 -0.0142352475139 0
-0.00886631890494 -0.0142384315405 0
0.0 0.0 0
0.0 0.0 0
0.0 0.0 0
0.0 0.0 0
0.0 0.0 0
0.0 0.0 0
0.0 0.0 0
0.0 0.0 0
0.0 0.0 0
0.0 0.0 0
0.0 0.0 0
0.0 0.0 0
0.0 0.0 0
0.0 0.0 0
0.0 0.0 0
0.0 0.0 0
0.0 0.0 0
0.0 0.0 0
0.0 0.0 0
0.0 0.0 0
0.0 0.0 0
0.0 0.0 0
0.00275394181743 -0.0027674465443 0
0.00417132269903 -0.00455341254862 0
0.00523344751584 -0.0059932628048 0
0.00598148544307 -0.00722785970527 0
0.00656210922099 -0.00833020529272 0
0.00703058113512 -0.009320777684 0
0.00740727741522 -0.0102247029751 0
0.00773367055691 -0.011048813367 0
0.00801124049386 -0.0118036124103 0
0.00825700828409 -0.012496531022 0
0.0084780602075 -0.0131303553306 0
0.00868002455092 -0.0137085657677 0
0.00861986167386 -0.0140519509126 0
0.00837392891648 -0.0138668273961 0
0.00812588480989 -0.013681074811 0
0.00787468031194 -0.0134957012007 0
0.00762077978257 -0.0133127052857 0
0.0073645868825 -0.0131337892864 0
0.00710540566341 -0.0129597663084 0
0.00684578623111 -0.0127925100426 0
0.00658425812738 -0.0126326061377 0
0.0063239597051 -0.0124804216027 0
0.00606318983592 -0.0123365642016 0
0.00580450496565 -0.0122012642064 0
0.00554670645231 -0.0120750818873 0
0.00529228319417 -0.0119589423401 0
0.00504248586774 -0.0118497487813 0
0.00479422163841 -0.0117507870146 0
0.0045511211734 -0.0116585420242 0
0.00431332171893 -0.0115736930859 0
0.0040791210638 -0.0114962314933 0
0.0038478680409 -0.011426455655 0
0.00362242699892 -0.0113616623536 0
0.00340025674727 -0.0113051202925 0
0.00318423925123 -0.0112530403677 0
0.00297333080435 -0.0112060548242 0
0.00276541164274 -0.0111639484188 0
0.00256173194486 -0.0111247441173 0
0.00236142755568 -0.011091388705 0
0.00216525170669 -0.0110599658953 0
0.00197196108478 -0.0110340775011 0
0.00178241019081 -0.0110100826791 0
0.00159569259833 -0.0109890767305 0
0.00141099968151 -0.0109714618484 0
0.00122938773668 -0.0109558803743 0
0.00104939530922 -0.0109434273666 0
0.000871739126922 -0.0109325375694 0
0.000695630800806 -0.0109242538202 0
0.000520645371183 -0.0109169899114 0
0.000346481866571 -0.0109122542489 0
0.00017287896241 -0.0109095244249 0
-3.8626634708e-07 -0.0109089584887 0
-0.000173686695613 -0.0109099535307 0
-0.000347206471354 -0.0109126666272 0
-0.000521062969911 -0.0109173235563 0
-0.00069623770816 -0.0109234753469 0
-0.000872509960249 -0.0109322857301 0
-0.00105018854579 -0.0109433928633 0
-0.0012298523213 -0.0109565043958 0
-0.00141151785143 -0.0109710260733 0
-0.00159543180974 -0.0109884827652 0
-0.00178302792246 -0.0110087920199 0
-0.00197322434396 -0.0110328966893 0
-0.00216554753501 -0.0110593899931 0
-0.00236191269094 -0.0110907097531 0
-0.00256154262026 -0.0111240105714 0
-0.00276490735967 -0.0111621161233 0
-0.00297364622968 -0.0112032920822 0
-0.00318575581155 -0.0112518805903 0
-0.00340217795221 -0.0113035622878 0
-0.00362238991837 -0.0113621399121 0
-0.00384774141124 -0.0114253558364 0
-0.00407933768019 -0.0114955663657 0
-0.00431411878329 -0.0115730621001 0
-0.0045528324191 -0.0116579688823 0
-0.0047970245643 -0.0117506908154 0
-0.00504398106326 -0.0118506001475 0
-0.00529406243951 -0.0119593041419 0
-0.00554894655021 -0.0120755736185 0
-0.00580517318106 -0.0122024337074 0
-0.00606489459566 -0.012337030308 0
-0.00632553440938 -0.0124817747093 0
-0.00658574823573 -0.0126342662091 0
-0.00684717441721 -0.012794319915 0
-0.00710682146684 -0.0129618212045 0
-0.00736598090165 -0.0131360266583 0
-0.00762215917959 -0.0133150764214 0
-0.00787606719703 -0.0134981912656 0
-0.0081272878623 -0.0136837136497 0
-0.00837534061083 -0.0138696382243 0
-0.00862128064572 -0.0140549457474 0
-0.00868125435778 -0.0137117514471 0
-0.00847907437917 -0.0131335436229 0
-0.00825774733741 -0.0124997122532 0
-0.00801164624028 -0.011806734386 0
-0.00773373545115 -0.0110517458044 0
-0.00740715281181 -0.0102272785245 0
-0.00703033721232 -0.00932281196211 0
-0.00656225601185 -0.00833137416494 0
-0.00598300564947 -0.00722806616299 0
-0.00523757559668 -0.00599285088581 0
-0.00417762191114 -0.00455397073277 0
-0.00275898468388 -0.00276927962277 0
-0.00353880795048 -0.00575524220124 0
0.00351176197286 -0.00568919303455 0
-0.00180412535486 -0.00537016614324 0
-0.00040033105176 -0.00526741194195 0
0.000913836568954 -0.00530340478277 0
0.00261780189499 -0.00681538505288 0
-0.00607937005131 -0.00960119175588 0
0.00607848028173 -0.00959923960604 0
-0.00334233834358 -0.00771529365505 0
-0.00141378114146 -0.00731732592795 0
0.000307345638523 -0.00725927310457 0
0.00189607899042 -0.00780153728998 0
-0.00477990320623 -0.0089660272863 0
0.00477121212374 -0.00896441452891 0
-0.00269859770109 -0.00853921819273 0
-0.000745020985637 -0.00842537743978 0
0.00117182784545 -0.00845100302511 0
0.00388210690976 -0.00903222726121 0
0.00276030135989 -0.00899392188059 0
-0.00208380152401 -0.00907890528693 0
-8.88202546772e-05 -0.00895156657618 0
-0.00736248029 -0.011754546902 0
0.0073616345968 -0.011751931027 0
0.00471418304971 -0.00629315593872 0
-0.00471351140925 -0.00629798485943 0
-0.00423643048535 -0.00967831500068 0
0.00111513546726 -0.00331647324825 0
-0.0058718334194 -0.0106037326641 0
0.00589795758153 -0.0106567689311 0
-0.00139507660088 -0.009127346162 0
0.000565045097556 -0.00908247077171 0
0.00025189055537 -0.00437380066029 0
-0.000936127626739 -0.0045328664941 0
-0.00343341088852 -0.00959065338125 0
-0.00231155301858 -0.00474727069622 0
0.0017533990231 -0.00933380477447 0
0.00192866759739 -0.00386477953248 0
0.00346104175339 -0.00974026603163 0
0.00477851497467 -0.0102227448454 0
-0.00673566482886 -0.0115038141377 0
0.00673462771885 -0.0115016424923 0
0.00159907604643 -0.00539490636836 0
0.00231901882861 -0.0096238896788 0
-0.00502860621668 -0.0104226069858 0
0.00331196101782 -0.00669946345186 0
-0.000203835158804 -0.00705850923722 0
-0.00193151630351 -0.00717116497345 0
-0.00237708773227 -0.00303164548241 0
0.00231321444899 -0.00294286854622 0
0.000407543615911 -0.00250419820493 0
-0.000822586707731 -0.0024106727571 0
-0.00013702277966 -0.00258247673924 0
-0.002714738477 -0.00979866309293 0
-0.000560384947068 -0.00959073751118 0
-0.00481322731819 -0.0077029066127 0
0.00475991943544 -0.00765269583015 0
0.00107837431958 -0.00965927280703 0
-0.00687402472546 -0.0101060892314 0
0.00687422882759 -0.0101032495266 0
0.00418854981105 -0.0103100180162 0
-0.00367985638378 -0.00703316278145 0
-0.00209905595404 -0.00346223764637 0
-0.00109104652624 -0.00222852607906 0
0.000257213287841 -0.00960898494626 0
-0.00177452441914 -0.00976308364897 0
-0.00110368111629 -0.00985023127492 0
0.00544840861889 -0.0108085426889 0
0.000863419194937 -0.00674161486491 0
-0.00255274741828 -0.00701742682867 0
-0.000782833774235 -0.00672041499872 0
-0.00395450100531 -0.0103042397007 0
0.00314919424809 -0.00814433922572 0
0.00316038083912 -0.0101380093472 0
-0.00566637517375 -0.0112346767273 0
-0.000380123077052 -0.00214513469006 0
0.00134690591669 -0.00736206767472 0
0.00231350116713 -0.00743579439344 0
0.00376920400857 -0.00429940924914 0
-0.00377373308643 -0.00430191319625 0
-0.00235915850467 -0.0101429262188 0
-0.0031559920329 -0.010292349814 0
-0.000236143893076 -0.00997276510931 0
0.00607589983135 -0.00824163256232 0
-0.00607516472118 -0.00824435798987 0
0.00146529844167 -0.010048750194 0
-0.00468599275168 -0.0107828126272 0
0.00221686319368 -0.00354511530535 0
0.00277868258378 -0.010172929185 0
0.00184405475978 -0.00472826149376 0
0.000760876100678 -0.00998655840002 0
-0.00641063668476 -0.0116791101663 0
0.00641357509866 -0.0117700153256 0
-0.00798894383567 -0.012829284611 0
0.00798787480795 -0.0128264907243 0
0.00398850019948 -0.00815921133606 0
0.00423304089315 -0.00748134782459 0
0.000730280290848 -0.00793779998326 0
8.74043110619e-05 -0.0059776584158 0
-0.00140780423116 -0.00594973181921 0
0.000962149929845 -0.00390724798078 0
-0.00307801178217 -0.00825767274827 0
0.000945211440571 -0.00204542618925 0
-0.00107818880882 -0.00798952752618 0
-0.00745251559514 -0.0125150656129 0
0.00745135533015 -0.0125126491833 0
0.00012947206954 -0.00226419720854 0
-0.00544031940715 -0.00918303306288 0
0.00543797917613 -0.00917994350618 0
-0.00415313943933 -0.00856899564902 0
-0.00145922088104 -0.0100651971903 0
-0.000464992983595 -0.00370138348012 0
0.00202745455115 -0.0101675658881 0
-0.00159567794118 -0.00394993315169 0
0.00525790710793 -0.0111899884963 0
0.000532103059992 -0.00200864241146 0
-0.00552101090552 -0.0081103080714 0
0.00552278844774 -0.00810748613263 0
0.0047449010581 -0.0109268525792 0
0.00385465010208 -0.0105741403022 0
-0.00364948368862 -0.00897370381054 0
-0.00361127355831 -0.0105043021604 0
0.00595458910386 -0.0115232212258 0
0.00257452357617 -0.00568283696721 0
-0.00277149785508 -0.00624503533727 0
-0.00163437430855 -0.00844765737299 0
0.000253843399737 -0.00837391863451 0
-0.00353591685361 -0.00489812295393 0
0.00353974661016 -0.00489031691138 0
0.00231253025 -0.00858386763775 0
0.00163355323202 -0.00659587740361 0
-0.0067434705907 -0.0107988223493 0
0.00674267452626 -0.010796521718 0
0.00341299939742 -0.007795153126 0
0.000535145553544 -0.00401576493938 0
-0.00121920367088 -0.00407279379698 0
0.0028069038274 -0.0051669812324 0
-9.39504681717e-05 -0.00413268396099 0
0.00153924577846 -0.00818263845998 0
-0.000798648919229 -0.00538742831868 0
-0.00532277224301 -0.0100768115758 0
0.00523829876425 -0.00645825142548 0
-0.00523903064305 -0.00646056937355 0
-0.00615400413529 -0.0103973770009 0
0.00615220366519 -0.0103671205549 0
-0.00236608381134 -0.00879606393209 0
-0.00038518294401 -0.00858210285849 0
-0.00746665581391 -0.011275395431 0
0.00746635718511 -0.0112725508516 0
-0.000832933820722 -0.0101164316314 0
-0.00437178829046 -0.00769166026564 0
0.000451789956736 -0.00619102125527 0
-0.00300573842259 -0.00555343747158 0
0.000876400659131 -0.0015241411825 0
0.00198318677466 -0.00881384452456 0
-0.000836498332909 -0.00924017018216 0
-0.00520205239631 -0.0110961580434 0
-0.00106882559338 -0.00621976109495 0
-0.00210700570527 -0.0102367530649 0
-1.61841535534e-05 -0.0101042668358 0
0.000520822998265 -0.0100699840859 0
-0.00694070304131 -0.0121441661738 0
0.0069395497527 -0.012141877375 0
-0.00443070375543 -0.0108617015066 0
0.000521906475168 -0.00142290732381 0
0.0023931246364 -0.0102700194903 0
-0.00605976869847 -0.0116218055268 0
0.00347142403851 -0.0105371331264 0
-0.00234523264558 -0.00739107174605 0
0.00531254408677 -0.00982418616651 0
-0.000545335333216 -0.00722008860534 0
-0.00115515081845 -0.0016322852306 0
-0.00300211553847 -0.00921834708404 0
0.000864785602364 -0.00889231875146 0
0.00171545991098 -0.0102273394749 0
0.00137747930824 -0.00190540500136 0
-1.71457843092e-05 -0.00781407910032 0
-0.00184896285898 -0.00791270104539 0
-0.0014508460796 -0.00162366143785 0
0.00144542470308 -0.00162076853025 0
-0.00449364905877 -0.00942551842334 0
0.00437366807148 -0.00927631688003 0
0.00208270086072 -0.00622550102881 0
-0.000841063250779 -0.00148383057071 0
0.00142836225472 -0.00912076850732 0
-0.00109045382978 -0.0089360053561 0
0.00267418758693 -0.0078987985106 0
-0.00210147473306 -0.00517167921867 0
0.00377203647782 -0.0095852961212 0
0.000667747295873 -0.00544809910812 0
-0.00614737716271 -0.00906393593954 0
0.00614734393685 -0.00906072191525 0
-0.000744115786374 -0.00308153487643 0
0.0031009193151 -0.00891012976435 0
-0.00278398647915 -0.0103971698473 0
-0.00456699131002 -0.00668033063436 0
-0.000621557957735 -0.0100962570731 0
0.00456571032757 -0.00667432437656 0
0.00669433584404 -0.00922502174043 0
-0.00669392948837 -0.00922758634429 0
0.00256316079588 -0.00937218022088 0
0.00501376128858 -0.00998434176302 0
0.00437091186258 -0.0100498722262 0
-0.000381559707819 -0.00134183893491 0
0.00111824421354 -0.0102086074971 0
0.00152205883766 -0.00346305830399 0
6.96516058159e-08 -0.0011780872724 0
0.00482419364368 -0.00831529895167 0
0.00124987057217 -0.00525996315192 0
-0.00263424294173 -0.0039979638553 0
-0.002686014327 -0.00263488215967 0
0.00267939323568 -0.00263353328904 0
-0.000567048293191 -0.00138778520813 0
-0.00332218184708 -0.00696217008775 0
-0.00779084165964 -0.0128342698931 0
0.00778968169653 -0.0128316667586 0
-0.00785003996499 -0.0121229870811 0
0.00784933948204 -0.0121200837315 0
-0.000157732569627 -0.00134269753362 0
-0.00392078114512 -0.00862529671282 0
-0.00177743087808 -0.00342649793118 0
-0.00170118211541 -0.00588882584488 0
-0.000206368491045 -0.00580895607085 0
0.00015021917916 -0.00137939616844 0
0.00349453148395 -0.00630276809173 0
-0.00546621961399 -0.00864652678104 0
0.00432737367686 -0.010989115873 0
0.00550500194411 -0.00866161765126 0
0.00288218871133 -0.00650993092497 0
0.00108146397499 -0.00746620241268 0
0.00300884073566 -0.0106782485617 0
4.71537010422e-05 -0.00704726558992 0
-0.0016555610527 -0.00711750428569 0
0.00556217270715 -0.0114460953845 0
-0.00704682601997 -0.0116074713876 0
0.00704580625953 -0.0116051371585 0
-0.00168671613619 -0.0103221585188 0
-0.00125890872463 -0.0102928666564 0
0.00193474407747 -0.00702965089319 0
-0.00711833813235 -0.0110761469073 0
0.00711788278576 -0.0110733744886 0
-0.00399279818358 -0.00505089531601 0
0.00399220279208 -0.00504605162731 0
0.000256614296926 -0.0104960557031 0
0.000507023424325 -0.0082870469643 0
-0.0038923564774 -0.0107807510131 0
-0.00828542597384 -0.0132742960492 0
0.00828426065778 -0.0132713666984 0
0.00103692466039 -0.00616593775812 0
-0.00135351100897 -0.00831424875527 0
0.00504446488268 -0.0113356897225 0
-0.00503174974938 -0.00885338567743 0
0.00145413154455 -0.00439002471789 0
-0.00636204596268 -0.0110912420377 0
0.00340460399299 -0.00907181637638 0
0.00630224152572 -0.0109863430377 0
-0.00344414675879 -0.0107567197182 0
0.000620372971497 -0.00703640555379 0
0.00288526768659 -0.00971704175155 0
-0.00104951694067 -0.00700421920844 0
0.000266261679715 -0.00129143968367 0
-0.00293916887453 -0.00736945306768 0
-0.00546311751333 -0.00980169986644 0
0.00297639252436 -0.00446666616593 0
0.00629257828443 -0.0119983095107 0
-0.00223615930831 -0.00791667256095 0
-0.000371142949813 -0.00776462076402 0
-0.00211766358579 -0.00636834973383 0
-0.00552866741127 -0.0115829690695 0
-0.00186674989642 -0.00918478085145 0
0.000122081349951 -0.00907393218011 0
-0.000503125699857 -0.00622673978383 0
-0.00401127404828 -0.0097880617626 0
-0.00103210466376 -0.0102353749089 0
-0.00080314330961 -0.00763457836465 0
-0.00727765334192 -0.0106241995788 0
0.00727771962021 -0.0106214206044 0
0.00204222155821 -0.00950089489441 0
0.000773998023588 -0.00416109364215 0
0.00115690957766 -0.00140168805558 0
-0.00369899600832 -0.00795159061683 0
-0.00505730719653 -0.0113586430353 0
-0.00421739609476 -0.00688618570566 0
-0.00497120783733 -0.00973703221221 0
-0.00132442563966 -0.00493033181504 0
-0.00270413217692 -0.00786171635015 0
-0.00432527543624 -0.00820226634064 0
-0.0010833160487 -0.00131625828386 0
-0.00301712585926 -0.0107237178073 0
-0.00262184122668 -0.0106421389344 0
-0.000434889212045 -0.0104186015494 0
0.00252009531538 -0.0083022660451 0
-0.00653985126208 -0.00997812829984 0
0.00654002432842 -0.00997514213803 0
0.00466207372011 -0.00534136064883 0
-0.00466543832355 -0.00534271033338 0
0.00417233055351 -0.00680064007907 0
-2.38444010351e-05 -0.00503323284602 0
0.0012979973304 -0.0104828528924 0
-0.00681413554731 -0.0123328716354 0
0.00680295438587 -0.0123298379209 0
-0.00244968791263 -0.00450766688517 0
-0.00418259746624 -0.0109072223499 0
0.000959662552206 -0.0104712599221 0
0.00570762122854 -0.0108743899351 0
-0.00244066164041 -0.0094845537824 0
-0.000411681930286 -0.00921699204939 0
0.0026180187943 -0.0106092141195 0
-0.0073117180274 -0.0126894691902 0
0.00731047880165 -0.0126871531034 0
0.00306353764048 -0.00943704290332 0
0.00377065706604 -0.00718006558091 0
-0.00191658247987 -0.0103513174565 0
0.000664745748999 -0.00302498208241 0
0.00159805004381 -0.00286346558161 0
0.00349654540022 -0.00853264151376 0
0.0022383580753 -0.0105802047079 0
-0.0010489305527 -0.00261127411097 0
0.00465595102644 -0.00921024132764 0
-0.00213234049638 -0.00966584597775 0
-7.24818355586e-05 -0.00953091666175 0
-0.00580988432229 -0.0109707922858 0
-0.000605027490472 -0.00896649816759 0
-0.00470446276406 -0.0100984242054 0
0.00433844637153 -0.00829876648636 0
9.08778902255e-05 -0.00350702717242 0
0.00391135984458 -0.00587076434825 0
0.00460598243763 -0.0111833014644 0
-0.000309621036745 -0.0041792360329 0
0.00161661748525 -0.0076235307818 0
-0.00148351042302 -0.00427555531808 0
-0.00276462279952 -0.00922253457806 0
0.00408755310213 -0.0110037092286 0
0.0055243028018 -0.00978842256234 0
-0.00393378810819 -0.00591958989477 0
0.00029214621699 -0.00355776176461 0
0.00325213908376 -0.0107362478499 0
-0.000287688683141 -0.00252363791656 0
0.00646419442074 -0.00853934113605 0
-0.00646376900537 -0.00854148475345 0
0.00120668528577 -0.00912239046629 0
0.00217758026769 -0.00788588735085 0
-0.00335808454975 -0.010037380866 0
0.00217339595458 -0.00539274501922 0
-0.00202436683639 -0.00289875767062 0
-0.00592877431744 -0.0117955167134 0
-0.000528166749761 -0.00105075615733 0
0.000446360387662 -0.00955838955484 0
-0.00155308258645 -0.0096279437375 0
-0.00126825762743 -0.00960009326424 0
-0.00467260971211 -0.0111681241513 0
-0.00318827679456 -0.00902482699307 0
-0.00708470732791 -0.0120623817905 0
-0.00436547463187 -0.0102783384639 0
0.00708357799415 -0.0120600862889 0
0.00374629717274 -0.00833417116858 0
-0.00227010208198 -0.0106201298458 0
-0.000157647635702 -0.0103697894155 0
0.00159056234914 -0.00956503862 0
-0.00378564089017 -0.00669481795966 0
-0.000655038470648 -0.00337046207774 0
0.00132553644344 -0.00644952303263 0
0.00281929676767 -0.00759139892394 0
0.00303052743566 -0.00735858665089 0
0.00220022362801 -0.0100315321458 0
0.00086392419139 -0.00949018233668 0
-0.00368991334433 -0.00972191624483 0
0.00606187823058 -0.0112828794684 0
-0.00281920379689 -0.00575635314623 0
0.000642912845184 -0.0104469928287 0
-0.00287853297864 -0.00483310895119 0
0.000550980618632 -0.00106758917567 0
-0.00530709169039 -0.0105167811199 0
-0.00665303763518 -0.0117486112236 0
0.00656389452693 -0.0116458266419 0
0.000422784222108 -0.00533414006031 0
-0.00812229702434 -0.0133496961438 0
0.00812103347317 -0.0133469551116 0
0.00158074636989 -0.0104814405192 0
-0.00632303855097 -0.0120093678662 0
-0.00541427854455 -0.00742126103766 0
0.00541465999437 -0.00741778076314 0
0.00205688660394 -0.00461956831886 0
0.00253690998139 -0.0100068535303 0
0.00403810786111 -0.00964776999478 0
-0.00489023520939 -0.010686722316 0
0.00026709626703 -0.00652746986031 0
-0.000144749772292 -0.000838120030381 0
0.00174877202217 -0.00871152904217 0
-0.000961154908803 -0.00840045797674 0
-0.00133571970822 -0.00659681401684 0
-0.0021140578289 -0.0084509119538 0
-0.000196251785604 -0.00832929264758 0
-0.00815424781535 -0.0127573020921 0
0.0081533027391 -0.0127543191678 0
-0.00220792455319 -0.00587759174661 0
0.00392280695356 -0.0101831650762 0
-0.00652925432314 -0.010842608995 0
-0.00148570337721 -0.0105544085212 0
0.00652574994732 -0.010834979632 0
0.00494081676831 -0.0107736552203 0
0.000361710952733 -0.00895546390288 0
-0.00179397980812 -0.00388601492829 0
-0.00107257042282 -0.00542026558029 0
0.00141000360872 -0.00286375731237 0
-0.00159608285178 -0.00903808178497 0
-0.00766988250674 -0.0123939318715 0
0.00766887334302 -0.0123912846281 0
0.00285726977925 -0.005735576522 0
0.00299947016657 -0.00355979262919 0
-0.00301601849069 -0.00358303828344 0
0.00514910392779 -0.0105730644229 0
0.000171372565474 -0.00771349542196 0
-0.00162890110039 -0.00778605127721 0
0.000970156647703 -0.00246371885572 0
0.000867908839433 -0.00306599297522 0
-0.00448628835907 -0.00543187627995 0
0.00448472078272 -0.00542898937304 0
-0.00456919529092 -0.00906901002515 0
-0.000302020214339 -0.000875221645253 0
0.00582719310121 -0.0117991938711 0
0.00227447576093 -0.00408966447152 0
0.00187518985118 -0.0105090034093 0
-0.00585377324585 -0.00962250311436 0
-0.00375344496276 -0.0102775312483 0
0.00585788733748 -0.00962632126228 0
0.00357927925955 -0.00752306017777 0
-0.000763714141388 -0.0105362424085 0