# vtk DataFile Version 2.0
Generated with Solid Solver
ASCII
DATASET UNSTRUCTURED_GRID
POINTS 856 float 
0.0 3.5 0.0
1.6 3.5 0.0
1.6 4.0 0.0
0.0 4.0 0.0
0.0695652173912 3.5 0.0
0.139130434782 3.5 0.0
0.208695652174 3.5 0.0
0.278260869565 3.5 0.0
0.347826086956 3.5 0.0
0.417391304347 3.5 0.0
0.486956521738 3.5 0.0
0.556521739129 3.5 0.0
0.62608695652 3.5 0.0
0.695652173911 3.5 0.0
0.765217391302 3.5 0.0
0.834782608694 3.5 0.0
0.904347826085 3.5 0.0
0.973913043477 3.5 0.0
1.04347826087 3.5 0.0
1.11304347826 3.5 0.0
1.18260869565 3.5 0.0
1.25217391304 3.5 0.0
1.32173913043 3.5 0.0
1.39130434783 3.5 0.0
1.46086956522 3.5 0.0
1.53043478261 3.5 0.0
1.6 3.56430812594 0.0
1.6 3.62270835268 0.0
1.6 3.6757434324 0.0
1.6 3.7239062376 0.0
1.6 3.76764438351 0.0
1.6 3.80736436404 0.0
1.6 3.84343531219 0.0
1.6 3.87619247117 0.0
1.6 3.90594026707 0.0
1.6 3.93295517284 0.0
1.6 3.95748825478 0.0
1.6 3.97976750982 0.0
1.58000000587 4.0 0.0
1.55999996633 4.0 0.0
1.54000002214 4.0 0.0
1.51999997198 4.0 0.0
1.50000000455 4.0 0.0
1.48000000216 4.0 0.0
1.45999997931 4.0 0.0
1.44000002484 4.0 0.0
1.41999997044 4.0 0.0
1.40000002096 4.0 0.0
1.37999999963 4.0 0.0
1.35999999626 4.0 0.0
1.34000002179 4.0 0.0
1.31999997343 4.0 0.0
1.3000000318 4.0 0.0
1.27999998783 4.0 0.0
1.26000000202 4.0 0.0
1.24000001295 4.0 0.0
1.21999998074 4.0 0.0
1.20000003685 4.0 0.0
1.17999998163 4.0 0.0
1.16000001473 4.0 0.0
1.14000000469 4.0 0.0
1.11999999139 4.0 0.0
1.10000003625 4.0 0.0
1.07999997877 4.0 0.0
1.06000002802 4.0 0.0
1.04000000338 4.0 0.0
1.02000000764 4.0 0.0
1.00000002986 4.0 0.0
0.979999980237 4.0 0.0
0.960000035522 4.0 0.0
0.939999990881 4.0 0.0
0.920000014619 4.0 0.0
0.900000017903 4.0 0.0
0.879999986222 4.0 0.0
0.860000037278 4.0 0.0
0.839999982352 4.0 0.0
0.820000022783 4.0 0.0
0.800000000002 4.0 0.0
0.779999977222 4.0 0.0
0.760000017652 4.0 0.0
0.739999962726 4.0 0.0
0.720000013782 4.0 0.0
0.699999982101 4.0 0.0
0.679999985385 4.0 0.0
0.660000009123 4.0 0.0
0.639999964482 4.0 0.0
0.620000019766 4.0 0.0
0.599999970141 4.0 0.0
0.57999999236 4.0 0.0
0.559999996622 4.0 0.0
0.539999971983 4.0 0.0
0.520000021235 4.0 0.0
0.499999963756 4.0 0.0
0.480000008612 4.0 0.0
0.459999995315 4.0 0.0
0.439999985272 4.0 0.0
0.420000018371 4.0 0.0
0.39999996315 4.0 0.0
0.380000019261 4.0 0.0
0.359999987052 4.0 0.0
0.339999997986 4.0 0.0
0.320000012172 4.0 0.0
0.299999968206 4.0 0.0
0.280000026575 4.0 0.0
0.259999978213 4.0 0.0
0.240000003742 4.0 0.0
0.220000000371 4.0 0.0
0.199999979041 4.0 0.0
0.180000029557 4.0 0.0
0.159999975162 4.0 0.0
0.140000020694 4.0 0.0
0.119999997846 4.0 0.0
0.0999999954514 4.0 0.0
0.0800000280232 4.0 0.0
0.0599999778571 4.0 0.0
0.0400000336732 4.0 0.0
0.0199999941324 4.0 0.0
0.0 3.97976750982 0.0
0.0 3.95748825478 0.0
0.0 3.93295517284 0.0
0.0 3.90594026707 0.0
0.0 3.87619247117 0.0
0.0 3.84343531219 0.0
0.0 3.80736436404 0.0
0.0 3.76764438351 0.0
0.0 3.7239062376 0.0
0.0 3.6757434324 0.0
0.0 3.62270835268 0.0
0.0 3.56430812594 0.0
0.249757905714 3.75212552678 0.0
1.35000000902 3.74954526597 0.0
0.488714190926 3.75947467509 0.0
0.727445026698 3.75983525744 0.0
0.962900270309 3.76055270856 0.0
1.17161197633 3.81755162829 0.0
0.130754031542 3.86878251069 0.0
1.46924596846 3.86878251069 0.0
0.369913852535 3.84868154079 0.0
0.603236233099 3.84763103091 0.0
0.843402107212 3.84736931152 0.0
1.05041705507 3.86611282467 0.0
0.250539323282 3.87785527135 0.0
1.34882231626 3.87787871523 0.0
0.468661896861 3.89189320321 0.0
0.704258117309 3.89639128976 0.0
0.94963922804 3.89654080835 0.0
1.25000000748 3.89875296068 0.0
1.12879020517 3.91059303421 0.0
0.548928478218 3.91905583534 0.0
0.7889268651 3.91906062813 0.0
0.0712526194949 3.93011432704 0.0
1.52874738051 3.93011432704 0.0
1.4740071133 3.74293106904 0.0
0.125992886699 3.74293106904 0.0
0.329956761073 3.92118145982 0.0
1.09412206522 3.66725831207 0.0
0.190000004299 3.92542384899 0.0
1.41098423528 3.92728100222 0.0
0.629999992124 3.92414139091 0.0
0.87000001175 3.92414140592 0.0
0.853391941071 3.71944243214 0.0
0.610032822379 3.72536074396 0.0
0.41090315692 3.92892991009 0.0
0.370435019193 3.7251305208 0.0
1.01000001875 3.93130199947 0.0
1.22823348571 3.68694249365 0.0
1.18894423177 3.93487447818 0.0
1.31063576122 3.93502724255 0.0
0.129927636183 3.94112156482 0.0
1.47007236382 3.94112156482 0.0
1.07646504896 3.76194504855 0.0
1.07000000339 3.94017719684 0.0
0.270000002394 3.93875928556 0.0
1.26759839792 3.80243333593 0.0
0.770332946246 3.83880063275 0.0
0.530342720064 3.83880306325 0.0
0.189898092614 3.63474333735 0.0
1.4101772205 3.6313147556 0.0
0.942883893479 3.62966700486 0.0
0.510631148905 3.62429064243 0.0
0.754670889573 3.63369080225 0.0
0.489999986184 3.94463854908 0.0
0.732500655853 3.9452729887 0.0
0.193627936713 3.81528931126 0.0
1.40183871842 3.81461096917 0.0
0.928721275957 3.94715071018 0.0
0.0604617896557 3.86281267064 0.0
1.53953821034 3.86281267065 0.0
1.25036152032 3.94913766834 0.0
0.30096552553 3.81141484704 0.0
0.297089357677 3.66359682597 0.0
0.394212311705 3.61316974741 0.0
0.831051681923 3.94633984116 0.0
0.592085081305 3.94901138542 0.0
0.669405291514 3.95495209798 0.0
1.3611855791 3.94637621082 0.0
0.928496698914 3.82436133158 0.0
0.444093171593 3.8271987226 0.0
0.683378885111 3.8234871366 0.0
0.372430737197 3.95235208784 0.0
1.19348789949 3.87019408468 0.0
1.15124363553 3.95467023547 0.0
0.229287653728 3.96038323295 0.0
0.646635519079 3.61231195482 0.0
0.986819459779 3.84973028271 0.0
1.11214815433 3.84770266014 0.0
1.50610225987 3.6604664246 0.0
0.0938977401332 3.6604664246 0.0
0.531976760298 3.96138656711 0.0
0.451361041931 3.96112773652 0.0
0.771976835888 3.96138886125 0.0
1.53311213884 3.79435404356 0.0
0.066887861162 3.79435404356 0.0
0.970836553066 3.9620233382 0.0
0.311702426505 3.96111572975 0.0
1.31698094247 3.6658628839 0.0
1.11177843379 3.95948388532 0.0
1.15003411964 3.72957279566 0.0
0.890058924798 3.96133576813 0.0
0.169108880648 3.96040269401 0.0
1.42850737314 3.96465656678 0.0
0.0426347993992 3.9610175717 0.0
1.5573652006 3.9610175717 0.0
1.28993057938 3.85776473604 0.0
1.34652710411 3.82072629166 0.0
0.897316840472 3.87585124602 0.0
0.814484972147 3.79171515708 0.0
0.573290986674 3.7879873938 0.0
1.02164717476 3.69631051635 0.0
0.41798215839 3.87594988344 0.0
1.18469655214 3.6045863568 0.0
0.657426542805 3.87734841349 0.0
0.0893439701605 3.9657484063 0.0
1.51065602984 3.9657484063 0.0
0.850202761783 3.61862953305 0.0
0.185775988195 3.86980628439 0.0
1.41422401181 3.86980628439 0.0
0.305957202498 3.87340573583 0.0
0.629999992124 3.96272981278 0.0
0.686026569054 3.68766751472 0.0
1.03220081924 3.96436031967 0.0
0.445441337222 3.69456289967 0.0
1.33308537187 3.96770341358 0.0
1.0249206042 3.60512275769 0.0
0.128645746764 3.81165411571 0.0
1.47135425324 3.81165411571 0.0
1.29077706219 3.96625078806 0.0
1.21302440104 3.96491551313 0.0
0.373320303365 3.89968789902 0.0
0.409457647309 3.96502881891 0.0
1.39076199588 3.96614348387 0.0
1.2156032112 3.76624353786 0.0
0.383301616321 3.78976397621 0.0
0.593246012246 3.8948346816 0.0
0.833004203108 3.89475034107 0.0
0.187583903859 3.70688411961 0.0
1.41241609614 3.70688411961 0.0
1.08573330585 3.89673930733 0.0
1.04303343403 3.81530385578 0.0
0.103644791029 3.90516202075 0.0
1.49635520897 3.90516202075 0.0
1.23586605501 3.85112068621 0.0
0.921814270996 3.70213058021 0.0
0.532219762185 3.7029333087 0.0
1.28217045716 3.7375098981 0.0
0.779621693208 3.70806977531 0.0
0.998890529268 3.88397615296 0.0
0.659406618131 3.76469373474 0.0
0.230043799244 3.91599372373 0.0
1.53690667654 3.72637971331 0.0
0.0630933234627 3.72637971331 0.0
0.153148105836 3.90639761309 0.0
1.4478092366 3.90500627713 0.0
0.512139854501 3.90538519137 0.0
0.750930702019 3.90340708 0.0
0.0409150717909 3.90046251393 0.0
1.55908492821 3.90046251393 0.0
0.702096631597 3.96656725638 0.0
0.246204062466 3.82734823738 0.0
0.872012730916 3.80079945556 0.0
0.313419524246 3.75328100976 0.0
1.26305184675 3.57725747237 0.0
1.04341944162 3.90846795586 0.0
0.697725469476 3.93030230037 0.0
0.27003033309 3.96477332623 0.0
0.632456188669 3.80120134001 0.0
0.55988813035 3.96676596088 0.0
0.798125231733 3.9668778541 0.0
0.861599835739 3.96514225679 0.0
0.130196681328 3.96566148827 0.0
1.46980331867 3.96566148827 0.0
0.337465698618 3.96873835045 0.0
1.10690030388 3.57445060302 0.0
1.07038768144 3.96631210642 0.0
0.201908835349 3.96783542832 0.0
1.17640357301 3.96795841043 0.0
0.482502283815 3.8454083814 0.0
1.37723451734 3.90442225885 0.0
0.722497886517 3.84543272537 0.0
0.254749007352 3.57960328731 0.0
0.449206209982 3.91785378051 0.0
0.907803563184 3.91575967116 0.0
0.997592319531 3.96832081731 0.0
1.3597087328 3.59165409162 0.0
0.797785363131 3.87112617582 0.0
0.557788209884 3.87112741711 0.0
0.133223775006 3.57024633267 0.0
1.46673023696 3.57019175074 0.0
0.296361477075 3.90524448543 0.0
1.29555045611 3.90092076583 0.0
1.11951450862 3.79592056714 0.0
0.341558640376 3.57546927501 0.0
0.974255514016 3.92370320024 0.0
0.664786082443 3.91707165091 0.0
1.1442561544 3.86460464827 0.0
0.430695849932 3.74774845865 0.0
1.22439218721 3.92431164104 0.0
0.917330800791 3.76752811157 0.0
0.0995806821614 3.83759752714 0.0
1.50041931784 3.83759752714 0.0
0.586492545959 3.6571718064 0.0
1.16809690663 3.90376349956 0.0
0.490525946651 3.9687439861 0.0
0.170108846494 3.77025381333 0.0
0.726723612771 3.96611364881 0.0
1.42998397347 3.77014833166 0.0
1.55978981314 3.82099569701 0.0
0.0402101868575 3.82099569701 0.0
1.10043652243 3.92805072974 0.0
1.34111814411 3.91924529479 0.0
1.27430066613 3.93505265881 0.0
0.56431092584 3.57086686051 0.0
0.930516510487 3.96969091611 0.0
1.17713743504 3.67180033503 0.0
0.801256410508 3.5635758738 0.0
1.37979186382 3.84566323689 0.0
1.02277822921 3.7577258162 0.0
0.252009847995 3.68167957306 0.0
0.0497138210057 3.58866012032 0.0
1.55028617899 3.58866012032 0.0
0.466046622144 3.57331739513 0.0
0.343019074867 3.81481221655 0.0
0.0645235269233 3.96909610548 0.0
1.53547647308 3.96909610548 0.0
0.0310141903995 3.92955737583 0.0
[...]
POINT_DATA 856
VECTORS Displacement float
0.0 0.0 0
0.0 0.0 0
0.0354595936424 -0.0569409900557 0
-0.0354652756197 -0.0569537261619 0
0.0 0.0 0
0.0 0.0 0
0.0 0.0 0
0.0 0.0 0
0.0 0.0 0
0.0 0.0 0
0.0 0.0 0
0.0 0.0 0
0.0 0.0 0
0.0 0.0 0
0.0 0.0 0
0.0 0.0 0
0.0 0.0 0
0.0 0.0 0
0.0 0.0 0
0.0 0.0 0
0.0 0.0 0
0.0 0.0 0
0.0 0.0 0
0.0 0.0 0
0.0 0.0 0
0.0 0.0 0
0.0110157672697 -0.0110697861772 0
0.0166852907961 -0.0182136501945 0
0.0209337900633 -0.0239730512192 0
0.0239259417723 -0.0289114388211 0
0.0262484368839 -0.0333208211709 0
0.0281223245405 -0.037283110736 0
0.0296291096609 -0.0408988119002 0
0.0309346822276 -0.044195253468 0
0.0320449619754 -0.0472144496413 0
0.0330280331364 -0.0499861240878 0
0.03391224083 -0.0525214213222 0
0.0347200982037 -0.0548342630707 0
0.0344794466955 -0.0562078036505 0
0.0334957156659 -0.0554673095844 0
0.0325035392396 -0.0547242992438 0
0.0314987212478 -0.0539828048027 0
0.0304831191303 -0.0532508211429 0
0.02945834753 -0.0525351571457 0
0.0284216226536 -0.0518390652336 0
0.0273831449244 -0.0511700401705 0
0.0263370325095 -0.0505304245509 0
0.0252958388204 -0.0499216864109 0
0.0242527593437 -0.0493462568063 0
0.0232180198626 -0.0488050568257 0
0.0221868258093 -0.0483003275491 0
0.0211691327767 -0.0478357693603 0
0.020169943471 -0.0473989951252 0
0.0191768865536 -0.0470031480585 0
0.0182044846936 -0.0466341680966 0
0.0172532868757 -0.0462947723438 0
0.0163164842552 -0.045984925973 0
0.0153914721636 -0.04570582262 0
0.0144897079957 -0.0454466494145 0
0.0136010269891 -0.04522048117 0
0.0127369570049 -0.0450121614708 0
0.0118933232174 -0.0448242192967 0
0.011061646571 -0.0446557936751 0
0.0102469277794 -0.044498976469 0
0.00944571022273 -0.0443655548201 0
0.00866100682677 -0.0442398635813 0
0.0078878443391 -0.0441363100045 0
0.00712964076324 -0.0440403307165 0
0.00638277039332 -0.0439563069219 0
0.00564399872604 -0.0438858473937 0
0.00491755094674 -0.0438235214972 0
0.00419758123686 -0.0437737094662 0
0.00348695650769 -0.0437301502777 0
0.00278252320322 -0.0436970152806 0
0.00208258148473 -0.0436679596455 0
0.00138592746628 -0.0436490169956 0
0.000691515849639 -0.0436380976995 0
-1.54506538832e-06 -0.0436358339549 0
-0.00069474678245 -0.0436398141226 0
-0.00138882588542 -0.043650666509 0
-0.00208425187964 -0.0436692942251 0
-0.00278495083264 -0.0436939013877 0
-0.00349003984099 -0.0437291429204 0
-0.00420075418317 -0.0437735714532 0
-0.0049194092852 -0.0438260175833 0
-0.00564607140573 -0.043884104293 0
-0.00638172723895 -0.0439539310608 0
-0.00713211168985 -0.0440351680797 0
-0.00789289737584 -0.0441315867573 0
-0.00866219014006 -0.0442375599723 0
-0.00944765076377 -0.0443628390126 0
-0.010246170481 -0.0444960422858 0
-0.0110596294387 -0.0446484644931 0
-0.0118945849187 -0.0448131683287 0
-0.0127430232462 -0.045007522361 0
-0.0136087118088 -0.0452142491512 0
-0.0144895596735 -0.0454485596484 0
-0.015390965645 -0.0457014233457 0
-0.0163173507208 -0.0459822654629 0
-0.0172564751332 -0.0462922484003 0
-0.0182113296764 -0.0466318755293 0
-0.0191880982572 -0.0470027632617 0
-0.0201759242531 -0.04740240059 0
-0.021176249758 -0.0478372165678 0
-0.0221957862008 -0.048302294474 0
-0.0232206927243 -0.0488097348298 0
-0.0242595783826 -0.0493481212319 0
-0.0253021376375 -0.0499270988371 0
-0.0263429929429 -0.0505370648365 0
-0.0273886976688 -0.0511772796602 0
-0.0284272858673 -0.0518472848181 0
-0.0294639236066 -0.0525441066334 0
-0.0304886367183 -0.0532603056856 0
-0.0315042687881 -0.0539927650625 0
-0.0325091514492 -0.054734854599 0
-0.0335013624433 -0.0554785528974 0
-0.0344851225829 -0.0562197829898 0
-0.0347250174311 -0.0548470057885 0
-0.0339162975167 -0.0525341744917 0
-0.0330309893496 -0.049998849013 0
-0.0320465849611 -0.047226937544 0
-0.0309349418046 -0.0442069832176 0
-0.0296286112473 -0.0409091140981 0
-0.0281213488493 -0.0372912478485 0
-0.0262490240474 -0.0333254966598 0
-0.0239320225979 -0.028912264652 0
-0.0209503023867 -0.0239714035433 0
-0.0167104876446 -0.0182158829311 0
-0.0110359387355 -0.0110771184911 0
-0.0141552318019 -0.023020968805 0
0.0140470478914 -0.0227567721382 0
-0.00721650141944 -0.021480664573 0
-0.00160132420704 -0.0210696477678 0
0.00365534627582 -0.0212136191311 0
0.01047120758 -0.0272615402115 0
-0.0243174802052 -0.0384047670235 0
0.0243139211269 -0.0383969584242 0
-0.0133693533743 -0.0308611746202 0
-0.00565512456585 -0.0292693037118 0
0.00122938255409 -0.0290370924183 0
0.00758431596167 -0.0312061491599 0
-0.0191196128249 -0.0358641091452 0
0.019084848495 -0.0358576581156 0
-0.0107943908043 -0.0341568727709 0
-0.00298008394255 -0.0337015097591 0
0.00468731138178 -0.0338040121004 0
0.015528427639 -0.0361289090449 0
0.0110412054395 -0.0359756875224 0
-0.00833520609605 -0.0363156211477 0
-0.000355281018709 -0.0358062663047 0
-0.02944992116 -0.0470181876079 0
0.0294465383872 -0.0470077241079 0
0.0188567321988 -0.0251726237549 0
-0.018854045637 -0.0251919394377 0
-0.0169457219414 -0.0387132600027 0
0.00446054186903 -0.013265892993 0
-0.0234873336776 -0.0424149306565 0
0.0235918303261 -0.0426270757244 0
-0.00558030640352 -0.036509384648 0
0.00226018039022 -0.0363298830868 0
0.00100756222148 -0.0174952026411 0
-0.00374451050696 -0.0181314659764 0
-0.0137336435541 -0.038362613525 0
-0.00924621207433 -0.0189890827849 0
0.00701359609242 -0.0373352190979 0
0.00771467038956 -0.0154591181299 0
0.0138441670136 -0.0389610641265 0
0.0191140598987 -0.0408909793817 0
-0.0269426593154 -0.0460152565508 0
0.0269385108754 -0.0460065699692 0
0.00639630418572 -0.0215796254735 0
0.00927607531443 -0.0384955587152 0
-0.0201144248667 -0.0416904279431 0
0.0132478440713 -0.0267978538074 0
-0.000815340635218 -0.0282340369489 0
-0.00772606521405 -0.0286846598938 0
-0.00950835092908 -0.0121265819296 0
0.00925285779595 -0.0117714741849 0
0.00163017446364 -0.0100167928197 0
-0.00329034683092 -0.00964269102839 0
-0.000548091118641 -0.0103299069569 0
-0.010858953908 -0.0391946523717 0
-0.00224153978827 -0.0383629500447 0
-0.0192529092728 -0.0308116264508 0
0.0190396777417 -0.0306107833206 0
0.00431349727832 -0.0386370912281 0
-0.0274960989018 -0.0404243569254 0
0.0274969153103 -0.0404129981064 0
0.0167541992442 -0.041240072065 0
-0.0147194255351 -0.0281326511258 0
-0.00839622381617 -0.0138489505855 0
-0.00436418610497 -0.00891410431623 0
0.00102885315136 -0.0384359397851 0
-0.00709809767655 -0.0390523345959 0
-0.00441472446515 -0.0394009250997 0
0.0217936344756 -0.0432341707556 0
0.00345367677975 -0.0269664594596 0
-0.0102109896731 -0.0280697073147 0
-0.00313133509694 -0.0268816599949 0
-0.0158180040212 -0.0412169588027 0
0.0125967769923 -0.0325773569029 0
0.0126415233565 -0.0405520373889 0
-0.022665500695 -0.0449387069093 0
-0.00152049230821 -0.00858053876025 0
0.00538762366675 -0.0294482706989 0
0.00925400466852 -0.0297431775738 0
0.0150768160343 -0.0171976369966 0
-0.0150949323457 -0.017207652785 0
-0.00943663401869 -0.040571704875 0
-0.0126239681316 -0.0411693992561 0
-0.000944575572303 -0.0398910604373 0
0.0243035993254 -0.0329665302493 0
-0.0243006588847 -0.0329774319595 0
0.00586119376667 -0.0401950007759 0
-0.0187439710067 -0.0431312505086 0
0.00886745277471 -0.0141804612214 0
0.0111147303351 -0.0406917167401 0
0.00737621903913 -0.018913045975 0
0.00304350440271 -0.0399462336001 0
-0.025642546739 -0.0467164406651 0
0.0256543003946 -0.0470800613025 0
-0.0319557753427 -0.0513171384439 0
0.0319514992318 -0.0513059628971 0
0.0159540007979 -0.0326368453442 0
0.0169321635726 -0.0299253912983 0
0.00292112116339 -0.031751199933 0
0.000349617244248 -0.0239106336632 0
-0.00563121692464 -0.0237989272768 0
0.00384859971938 -0.0156289919231 0
-0.0123120471287 -0.0330306909931 0
0.00378084576228 -0.00818170475698 0
-0.00431275523526 -0.0319581101047 0
-0.0298100623806 -0.0500602624518 0
0.0298054213206 -0.0500505967331 0
0.000517888278162 -0.00905678883417 0
-0.0217612776286 -0.0367321322515 0
0.0217519167045 -0.0367197740247 0
-0.0166125577573 -0.0342759825961 0
-0.00583688352416 -0.0402607887611 0
-0.00185997193438 -0.0148055339205 0
0.00810981820458 -0.0406702635525 0
-0.00638271176472 -0.0157997326068 0
0.0210316284317 -0.0447599539853 0
0.00212841223997 -0.00803456964586 0
-0.0220840436221 -0.0324412322856 0
0.022091153791 -0.0324299445305 0
0.0189796042324 -0.0437074103168 0
0.0154186004083 -0.0422965612088 0
-0.0145979347545 -0.0358948152422 0
-0.0144450942333 -0.0420172086414 0
0.0238183564154 -0.0460928849033 0
0.0102980943047 -0.0227313478688 0
-0.0110859914203 -0.0249801413491 0
-0.00653749723419 -0.0337906294919 0
0.00101537359895 -0.033495674538 0
-0.0141436674144 -0.0195924918157 0
0.0141589864406 -0.0195612676455 0
0.00925012100001 -0.034335470551 0
0.00653421292806 -0.0263835096144 0
-0.0269738823628 -0.043195289397 0
0.026970698105 -0.0431860868722 0
0.0136519975897 -0.031180612504 0
0.00214058221418 -0.0160630597575 0
-0.00487681468353 -0.0162911751879 0
0.0112276153096 -0.0206679249296 0
-0.000375801872687 -0.016530735844 0
0.00615698311385 -0.0327305538399 0
-0.00319459567692 -0.0215497132747 0
-0.0212910889721 -0.0403072463034 0
0.020953195057 -0.0258330057019 0
-0.0209561225722 -0.0258422774942 0
-0.0246160165411 -0.0415895080036 0
0.0246088146608 -0.0414684822196 0
-0.00946433524537 -0.0351842557284 0
-0.00154073177604 -0.034328411434 0
-0.0298666232556 -0.045101581724 0
0.0298654287405 -0.0450902034063 0
-0.00333173528289 -0.0404657265255 0
-0.0174871531618 -0.0307666410626 0
0.00180715982694 -0.0247640850211 0
-0.0120229536904 -0.0222137498863 0
0.00350560263653 -0.00609656473001 0
0.00793274709862 -0.0352553780982 0
-0.00334599333164 -0.0369606807286 0
-0.0208082095852 -0.0443846321736 0
-0.0042753023735 -0.0248790443798 0
-0.0084280228211 -0.0409470122597 0
-6.47366142137e-05 -0.0404170673432 0
0.00208329199306 -0.0402799363438 0
-0.0277628121653 -0.0485766646951 0
0.0277581990108 -0.0485675095001 0
-0.0177228150217 -0.0434468060263 0
0.00208762590067 -0.00569162929522 0
0.00957249854561 -0.041080077961 0
-0.0242390747939 -0.0464872221072 0
0.013885696154 -0.0421485325057 0
-0.00938093058234 -0.0295642869842 0
0.0212501763471 -0.039296744666 0
-0.00218134133286 -0.0288803544214 0
-0.00462060327382 -0.00652914092239 0
-0.0120084621539 -0.0368733883361 0
0.00345914240945 -0.0355692750058 0
0.00686183964394 -0.0409093578994 0
0.00550991723296 -0.00762162000543 0
-6.85831372369e-05 -0.0312563164013 0
-0.00739585143593 -0.0316508041815 0
-0.00580338431839 -0.00649464575141 0
0.00578169881232 -0.00648307412098 0
-0.0179745962351 -0.0377020736934 0
0.0174946722859 -0.0371052675201 0
0.00833080344288 -0.0249020041152 0
-0.00336425300312 -0.00593532228283 0
0.00571344901888 -0.0364830740293 0
-0.00436181531913 -0.0357440214244 0
0.0106967503477 -0.0315951940424 0
-0.00840589893223 -0.0206867168747 0
0.0150881459113 -0.0383411844848 0
0.00267098918349 -0.0217923964325 0
-0.0245895086508 -0.0362557437582 0
0.0245893757474 -0.036242887661 0
-0.0029764631455 -0.0123261395057 0
0.0124036772604 -0.0356405190574 0
-0.0111359459166 -0.0415886793893 0
-0.0182679652401 -0.0267213225374 0
-0.00248623183094 -0.0403850282922 0
0.0182628413103 -0.0266972975063 0
0.0267773433762 -0.0369000869617 0
-0.0267757179535 -0.0369103453772 0
0.0102526431835 -0.0374887208835 0
0.0200550451543 -0.0399373670521 0
0.0174836474503 -0.0401994889046 0
-0.00152623883128 -0.00536735573963 0
0.00447297685418 -0.0408344299885 0
0.00608823535065 -0.0138522332159 0
2.78606423263e-07 -0.00471234908959 0
0.0192967745747 -0.0332611958067 0
0.00499948228867 -0.0210398526077 0
-0.0105369717669 -0.0159918554212 0
-0.010744057308 -0.0105395286387 0
0.0107175729427 -0.0105341331561 0
-0.00226819317277 -0.00555114083253 0
-0.0132887273883 -0.027848680351 0
-0.0311633666386 -0.0513370795723 0
0.0311587267861 -0.0513266670344 0
-0.03140015986 -0.0484919483244 0
0.0313973579282 -0.0484803349261 0
-0.000630930278506 -0.00537079013447 0
-0.0156831245805 -0.0345011868513 0
-0.0071097235123 -0.0137059917247 0
-0.00680472846166 -0.0235553033795 0
-0.000825473964178 -0.0232358242834 0
0.000600876716641 -0.00551758467374 0
0.0139781259358 -0.0252110723669 0
-0.021864878456 -0.0345861071242 0
0.0173094947074 -0.0439564634918 0
0.0220200077765 -0.034646470605 0
0.0115287548453 -0.0260397236999 0
0.00432585589996 -0.0298648096507 0
0.0120353629427 -0.0427129942469 0
0.000188614804169 -0.0281890623597 0
-0.0066222442108 -0.0284700171427 0
0.0222486908286 -0.0457843815379 0
-0.0281873040799 -0.0464298855505 0
0.0281832250381 -0.0464205486339 0
-0.00674686454475 -0.0412886340753 0
-0.00503563489851 -0.0411714666254 0
0.00773897630988 -0.0281186035728 0
-0.0284733525294 -0.0443045876291 0
0.0284715311431 -0.0442934979542 0
-0.0159711927343 -0.0202035812641 0
0.0159688111683 -0.0201842065092 0
0.00102645718771 -0.0419842228122 0
0.0020280936973 -0.0331481878572 0
-0.0155694259096 -0.0431230040524 0
-0.0331417038953 -0.0530971841966 0
0.0331370426311 -0.0530854667937 0
0.00414769864155 -0.0246637510325 0
-0.0054140440359 -0.0332569950211 0
0.0201778595307 -0.0453427588898 0
-0.0201269989975 -0.0354135427097 0
0.0058165261782 -0.0175600988716 0
-0.0254481838507 -0.0443649681507 0
0.013618415972 -0.0362872655055 0
0.0252089661029 -0.043945372151 0
-0.0137765870352 -0.0430268788728 0
0.00248149188599 -0.0281456222152 0
0.0115410707464 -0.0388681670062 0
-0.00419806776268 -0.0280168768338 0
0.00106504671886 -0.00516575873467 0
-0.0117566754981 -0.0294778122707 0
-0.0218524700533 -0.0392067994658 0
0.0119055700974 -0.0178666646637 0
0.0251703131377 -0.0479932380428 0
-0.00894463723325 -0.0316666902438 0
-0.00148457179925 -0.0310584830561 0
-0.00847065434316 -0.0254733989353 0
-0.0221146696451 -0.046331876278 0
-0.00746699958568 -0.0367391234058 0
0.000488325399804 -0.0362957287204 0
-0.00201250279943 -0.0249069591353 0
-0.0160450961931 -0.0391522470504 0
-0.00412841865506 -0.0409414996356 0
-0.00321257323844 -0.0305383134586 0
-0.0291106133677 -0.0424967983151 0
0.0291108784809 -0.0424856824175 0
0.00816888623285 -0.0380035795777 0
0.00309599209435 -0.0166443745686 0
0.00462763831063 -0.00560675222231 0
-0.0147959840333 -0.0318063624673 0
-0.0202292287861 -0.0454345721412 0
-0.016869584379 -0.0275447428226 0
-0.0198848313493 -0.0389481288488 0
-0.00529770255863 -0.0197213272602 0
-0.0108165287077 -0.0314468654006 0
-0.0173011017449 -0.0328090653625 0
-0.0043332641948 -0.00526503313543 0
-0.012068503437 -0.0428948712291 0
-0.0104873649067 -0.0425685557375 0
-0.00173955684818 -0.0416744061975 0
0.0100803812615 -0.0332090641804 0
-0.0261594050483 -0.0399125131994 0
0.0261600973137 -0.0399005685521 0
0.0186482948804 -0.0213654425953 0
-0.0186617532942 -0.0213708413335 0
0.016689322214 -0.0272025603163 0
-9.53776041404e-05 -0.0201329313841 0
0.0051919893216 -0.0419314115697 0
-0.0272565421892 -0.0493314865415 0
0.0272118175435 -0.0493193516835 0
-0.00979875165052 -0.0180306675407 0
-0.0167303898649 -0.0436288893996 0
0.00383865020882 -0.0418850396884 0
0.0228304849142 -0.0434975597406 0
-0.00976264656163 -0.0379382151296 0
-0.00164672772114 -0.0368679681976 0
0.0104720751772 -0.042436856478 0
-0.0292468721096 -0.0507578767607 0
0.0292419152066 -0.0507486124137 0
0.0122541505619 -0.0377481716133 0
0.0150826282642 -0.0287202623236 0
-0.00766632991947 -0.0414052698259 0
0.00265898299599 -0.0120999283296 0
0.00639220017526 -0.0114538623264 0
0.0139861816009 -0.034130566055 0
0.0089534323012 -0.0423208188317 0
-0.00419572221081 -0.0104450964439 0
0.0186238041058 -0.0368409653106 0
-0.00852936198552 -0.038663383911 0
-0.000289927342234 -0.038123666647 0
-0.0232395372892 -0.0438831691432 0
-0.00242010996189 -0.0358659926704 0
-0.0188178510563 -0.0403936968214 0
0.0173537854861 -0.0331950659454 0
0.000363511560902 -0.0140281086897 0
0.0156454393783 -0.023483057393 0
0.0184239297505 -0.0447332058575 0
-0.00123848414698 -0.0167169441316 0
0.00646646994099 -0.0304941231272 0
-0.00593404169206 -0.0171022212723 0
-0.0110584911981 -0.0368901383122 0
0.0163502124085 -0.0440148369142 0
0.0220972112072 -0.0391536902494 0
-0.0157351524328 -0.0236783595791 0
0.00116858486796 -0.0142310470585 0
0.013008556335 -0.0429449913996 0
-0.00115075473257 -0.0100945516662 0
0.0258567776829 -0.0341573645442 0
-0.0258550760215 -0.0341659390138 0
0.00482674114308 -0.0364895618652 0
0.00871032107076 -0.0315435494034 0
-0.013432338199 -0.0401495234639 0
0.00869358381834 -0.0215709800769 0
-0.00809746734556 -0.0115950306825 0
-0.0237150972698 -0.0471820668536 0
-0.00211266699904 -0.00420302462932 0
0.00178544155065 -0.0382335582194 0
-0.0062123303458 -0.03851177495 0
-0.00507303050973 -0.038400373057 0
-0.0186904388484 -0.0446724966054 0
-0.0127531071782 -0.0360993079723 0
-0.0283388293116 -0.048249527162 0
-0.0174618985275 -0.0411133538558 0
0.0283343119766 -0.0482403451558 0
0.0149851886909 -0.0333366846743 0
-0.00908040832791 -0.0424805193832 0
-0.00063059054281 -0.041479157662 0
0.00636224939655 -0.03826015448 0
-0.0151425635607 -0.0267792718386 0
-0.00262015388259 -0.0134818483109 0
0.00530214577378 -0.0257980921305 0
0.0112771870707 -0.0303655956958 0
0.0121221097426 -0.0294343466036 0
0.00880089451204 -0.0401261285833 0
0.00345569676556 -0.0379607293467 0
-0.0147596533773 -0.0388876649793 0
0.0242475129223 -0.0451315178735 0
-0.0112768151876 -0.0230254125849 0
0.00257165138074 -0.0417879713147 0
-0.0115141319145 -0.0193324358048 0
0.00220392247453 -0.00427035670267 0
-0.0212283667616 -0.0420671244797 0
-0.0266121505407 -0.0469944448943 0
0.0262555781077 -0.0465833065677 0
0.00169113688843 -0.0213365602412 0
-0.0324891880974 -0.0533987845753 0
0.0324841338927 -0.0533878204463 0
0.00632298547956 -0.0419257620768 0
-0.0252921542039 -0.0480374714649 0
-0.0216571141782 -0.0296850441506 0
0.0216586399775 -0.0296711230526 0
0.00822754641576 -0.0184782732755 0
0.0101476399256 -0.0400274141213 0
0.0161524314445 -0.0385910799791 0
-0.0195609408375 -0.0427468892642 0
0.00106838506812 -0.0261098794412 0
-0.000578999089166 -0.00335248012152 0
0.00699508808867 -0.0348461161687 0
-0.00384461963521 -0.0336018319069 0
-0.0053428788329 -0.0263872560674 0
-0.0084562313156 -0.0338036478152 0
-0.000785007142415 -0.0333171705903 0
-0.0326169912614 -0.0510292083683 0
0.0326132109564 -0.0510172766712 0
-0.00883169821275 -0.0235103669865 0
0.0156912278143 -0.0407326603047 0
-0.0261170172926 -0.04337043598 0
-0.00594281350884 -0.0422176340847 0
0.0261029997893 -0.0433399185278 0
0.0197632670733 -0.0430946208813 0
0.00144684381093 -0.0358218556115 0
-0.00717591923247 -0.0155440597131 0
-0.00429028169129 -0.0216810623212 0
0.00564001443489 -0.0114550292495 0
-0.00638433140711 -0.0361523271399 0
-0.030679530027 -0.0495757274858 0
0.0306754933721 -0.0495651385124 0
0.011429079117 -0.022942306088 0
0.0119978806663 -0.0142391705168 0
-0.0120640739628 -0.0143321531337 0
0.0205964157112 -0.0422922576916 0
0.000685490261895 -0.0308539816879 0
-0.00651560440156 -0.0311442051088 0
0.00388062659081 -0.00985487542288 0
0.00347163535773 -0.0122639719009 0
-0.0179451534363 -0.0217275051198 0
0.0179388831309 -0.0217159574922 0
-0.0182767811637 -0.0362760401006 0
-0.00120808085736 -0.00350088658101 0
0.0233087724048 -0.0471967754845 0
0.00909790304374 -0.0163586578861 0
0.00750075940471 -0.0420360136372 0
-0.0234150929834 -0.0384900124574 0
-0.015013779851 -0.0411101249933 0
0.0234315493499 -0.0385052850491 0
0.0143171170382 -0.0300922407111 0
-0.00305485656555 -0.0421449696339 0
0.00389710816762 -0.0319002262613 0
0.00176764207368 -0.00402678984504 0
0.0147461488519 -0.0435240247418 0
0.0114697422796 -0.0190943608961 0
0.0133367859844 -0.0397762503551 0
0.00964459921175 -0.0278220892885 0
0.0203096920656 -0.0365894000819 0
0.00131340626067 -0.00425164309692 0
-0.0133405591135 -0.0330681984618 0
-0.0304928822665 -0.0521496646226 0
0.00744332209213 -0.0216487452445 0
0.0304877369676 -0.0521399675073 0
0.00509963190657 -0.0190200218092 0
-0.0117332265358 -0.0391311908 0
-0.0232268276756 -0.0402525150407 0
0.0178802269984 -0.0424992649625 0
-0.0213879695696 -0.0438697193091 0
-0.0101829007956 -0.040087997358 0