# vtk DataFile Version 2.0
Generated with Solid Solver
ASCII
DATASET UNSTRUCTURED_GRID
POINTS 856 float 
0.0 3.5 0.0
1.6 3.5 0.0
1.6 4.0 0.0
0.0 4.0 0.0
0.0695652173912 3.5 0.0
0.139130434782 3.5 0.0
0.208695652174 3.5 0.0
0.278260869565 3.5 0.0
0.347826086956 3.5 0.0
0.417391304347 3.5 0.0
0.486956521738 3.5 0.0
0.556521739129 3.5 0.0
0.62608695652 3.5 0.0
0.695652173911 3.5 0.0
0.765217391302 3.5 0.0
0.834782608694 3.5 0.0
0.904347826085 3.5 0.0
0.973913043477 3.5 0.0
1.04347826087 3.5 0.0
1.11304347826 3.5 0.0
1.18260869565 3.5 0.0
1.25217391304 3.5 0.0
1.32173913043 3.5 0.0
1.39130434783 3.5 0.0
1.46086956522 3.5 0.0
1.53043478261 3.5 0.0
1.6 3.56430812594 0.0
1.6 3.62270835268 0.0
1.6 3.6757434324 0.0
1.6 3.7239062376 0.0
1.6 3.76764438351 0.0
1.6 3.80736436404 0.0
1.6 3.84343531219 0.0
1.6 3.87619247117 0.0
1.6 3.90594026707 0.0
1.6 3.93295517284 0.0
1.6 3.95748825478 0.0
1.6 3.97976750982 0.0
1.58000000587 4.0 0.0
1.55999996633 4.0 0.0
1.54000002214 4.0 0.0
1.51999997198 4.0 0.0
1.50000000455 4.0 0.0
1.48000000216 4.0 0.0
1.45999997931 4.0 0.0
1.44000002484 4.0 0.0
1.41999997044 4.0 0.0
1.40000002096 4.0 0.0
1.37999999963 4.0 0.0
1.35999999626 4.0 0.0
1.34000002179 4.0 0.0
1.31999997343 4.0 0.0
1.3000000318 4.0 0.0
1.27999998783 4.0 0.0
1.26000000202 4.0 0.0
1.24000001295 4.0 0.0
1.21999998074 4.0 0.0
1.20000003685 4.0 0.0
1.17999998163 4.0 0.0
1.16000001473 4.0 0.0
1.14000000469 4.0 0.0
1.11999999139 4.0 0.0
1.10000003625 4.0 0.0
1.07999997877 4.0 0.0
1.06000002802 4.0 0.0
1.04000000338 4.0 0.0
1.02000000764 4.0 0.0
1.00000002986 4.0 0.0
0.979999980237 4.0 0.0
0.960000035522 4.0 0.0
0.939999990881 4.0 0.0
0.920000014619 4.0 0.0
0.900000017903 4.0 0.0
0.879999986222 4.0 0.0
0.860000037278 4.0 0.0
0.839999982352 4.0 0.0
0.820000022783 4.0 0.0
0.800000000002 4.0 0.0
0.779999977222 4.0 0.0
0.760000017652 4.0 0.0
0.739999962726 4.0 0.0
0.720000013782 4.0 0.0
0.699999982101 4.0 0.0
0.679999985385 4.0 0.0
0.660000009123 4.0 0.0
0.639999964482 4.0 0.0
0.620000019766 4.0 0.0
0.599999970141 4.0 0.0
0.57999999236 4.0 0.0
0.559999996622 4.0 0.0
0.539999971983 4.0 0.0
0.520000021235 4.0 0.0
0.499999963756 4.0 0.0
0.480000008612 4.0 0.0
0.459999995315 4.0 0.0
0.439999985272 4.0 0.0
0.420000018371 4.0 0.0
0.39999996315 4.0 0.0
0.380000019261 4.0 0.0
0.359999987052 4.0 0.0
0.339999997986 4.0 0.0
0.320000012172 4.0 0.0
0.299999968206 4.0 0.0
0.280000026575 4.0 0.0
0.259999978213 4.0 0.0
0.240000003742 4.0 0.0
0.220000000371 4.0 0.0
0.199999979041 4.0 0.0
0.180000029557 4.0 0.0
0.159999975162 4.0 0.0
0.140000020694 4.0 0.0
0.119999997846 4.0 0.0
0.0999999954514 4.0 0.0
0.0800000280232 4.0 0.0
0.0599999778571 4.0 0.0
0.0400000336732 4.0 0.0
0.0199999941324 4.0 0.0
0.0 3.97976750982 0.0
0.0 3.95748825478 0.0
0.0 3.93295517284 0.0
0.0 3.90594026707 0.0
0.0 3.87619247117 0.0
0.0 3.84343531219 0.0
0.0 3.80736436404 0.0
0.0 3.76764438351 0.0
0.0 3.7239062376 0.0
0.0 3.6757434324 0.0
0.0 3.62270835268 0.0
0.0 3.56430812594 0.0
0.249757905714 3.75212552678 0.0
1.35000000902 3.74954526597 0.0
0.488714190926 3.75947467509 0.0
0.727445026698 3.75983525744 0.0
0.962900270309 3.76055270856 0.0
1.17161197633 3.81755162829 0.0
0.130754031542 3.86878251069 0.0
1.46924596846 3.86878251069 0.0
0.369913852535 3.84868154079 0.0
0.603236233099 3.84763103091 0.0
0.843402107212 3.84736931152 0.0
1.05041705507 3.86611282467 0.0
0.250539323282 3.87785527135 0.0
1.34882231626 3.87787871523 0.0
0.468661896861 3.89189320321 0.0
0.704258117309 3.89639128976 0.0
0.94963922804 3.89654080835 0.0
1.25000000748 3.89875296068 0.0
1.12879020517 3.91059303421 0.0
0.548928478218 3.91905583534 0.0
0.7889268651 3.91906062813 0.0
0.0712526194949 3.93011432704 0.0
1.52874738051 3.93011432704 0.0
1.4740071133 3.74293106904 0.0
0.125992886699 3.74293106904 0.0
0.329956761073 3.92118145982 0.0
1.09412206522 3.66725831207 0.0
0.190000004299 3.92542384899 0.0
1.41098423528 3.92728100222 0.0
0.629999992124 3.92414139091 0.0
0.87000001175 3.92414140592 0.0
0.853391941071 3.71944243214 0.0
0.610032822379 3.72536074396 0.0
0.41090315692 3.92892991009 0.0
0.370435019193 3.7251305208 0.0
1.01000001875 3.93130199947 0.0
1.22823348571 3.68694249365 0.0
1.18894423177 3.93487447818 0.0
1.31063576122 3.93502724255 0.0
0.129927636183 3.94112156482 0.0
1.47007236382 3.94112156482 0.0
1.07646504896 3.76194504855 0.0
1.07000000339 3.94017719684 0.0
0.270000002394 3.93875928556 0.0
1.26759839792 3.80243333593 0.0
0.770332946246 3.83880063275 0.0
0.530342720064 3.83880306325 0.0
0.189898092614 3.63474333735 0.0
1.4101772205 3.6313147556 0.0
0.942883893479 3.62966700486 0.0
0.510631148905 3.62429064243 0.0
0.754670889573 3.63369080225 0.0
0.489999986184 3.94463854908 0.0
0.732500655853 3.9452729887 0.0
0.193627936713 3.81528931126 0.0
1.40183871842 3.81461096917 0.0
0.928721275957 3.94715071018 0.0
0.0604617896557 3.86281267064 0.0
1.53953821034 3.86281267065 0.0
1.25036152032 3.94913766834 0.0
0.30096552553 3.81141484704 0.0
0.297089357677 3.66359682597 0.0
0.394212311705 3.61316974741 0.0
0.831051681923 3.94633984116 0.0
0.592085081305 3.94901138542 0.0
0.669405291514 3.95495209798 0.0
1.3611855791 3.94637621082 0.0
0.928496698914 3.82436133158 0.0
0.444093171593 3.8271987226 0.0
0.683378885111 3.8234871366 0.0
0.372430737197 3.95235208784 0.0
1.19348789949 3.87019408468 0.0
1.15124363553 3.95467023547 0.0
0.229287653728 3.96038323295 0.0
0.646635519079 3.61231195482 0.0
0.986819459779 3.84973028271 0.0
1.11214815433 3.84770266014 0.0
1.50610225987 3.6604664246 0.0
0.0938977401332 3.6604664246 0.0
0.531976760298 3.96138656711 0.0
0.451361041931 3.96112773652 0.0
0.771976835888 3.96138886125 0.0
1.53311213884 3.79435404356 0.0
0.066887861162 3.79435404356 0.0
0.970836553066 3.9620233382 0.0
0.311702426505 3.96111572975 0.0
1.31698094247 3.6658628839 0.0
1.11177843379 3.95948388532 0.0
1.15003411964 3.72957279566 0.0
0.890058924798 3.96133576813 0.0
0.169108880648 3.96040269401 0.0
1.42850737314 3.96465656678 0.0
0.0426347993992 3.9610175717 0.0
1.5573652006 3.9610175717 0.0
1.28993057938 3.85776473604 0.0
1.34652710411 3.82072629166 0.0
0.897316840472 3.87585124602 0.0
0.814484972147 3.79171515708 0.0
0.573290986674 3.7879873938 0.0
1.02164717476 3.69631051635 0.0
0.41798215839 3.87594988344 0.0
1.18469655214 3.6045863568 0.0
0.657426542805 3.87734841349 0.0
0.0893439701605 3.9657484063 0.0
1.51065602984 3.9657484063 0.0
0.850202761783 3.61862953305 0.0
0.185775988195 3.86980628439 0.0
1.41422401181 3.86980628439 0.0
0.305957202498 3.87340573583 0.0
0.629999992124 3.96272981278 0.0
0.686026569054 3.68766751472 0.0
1.03220081924 3.96436031967 0.0
0.445441337222 3.69456289967 0.0
1.33308537187 3.96770341358 0.0
1.0249206042 3.60512275769 0.0
0.128645746764 3.81165411571 0.0
1.47135425324 3.81165411571 0.0
1.29077706219 3.96625078806 0.0
1.21302440104 3.96491551313 0.0
0.373320303365 3.89968789902 0.0
0.409457647309 3.96502881891 0.0
1.39076199588 3.96614348387 0.0
1.2156032112 3.76624353786 0.0
0.383301616321 3.78976397621 0.0
0.593246012246 3.8948346816 0.0
0.833004203108 3.89475034107 0.0
0.187583903859 3.70688411961 0.0
1.41241609614 3.70688411961 0.0
1.08573330585 3.89673930733 0.0
1.04303343403 3.81530385578 0.0
0.103644791029 3.90516202075 0.0
1.49635520897 3.90516202075 0.0
1.23586605501 3.85112068621 0.0
0.921814270996 3.70213058021 0.0
0.532219762185 3.7029333087 0.0
1.28217045716 3.7375098981 0.0
0.779621693208 3.70806977531 0.0
0.998890529268 3.88397615296 0.0
0.659406618131 3.76469373474 0.0
0.230043799244 3.91599372373 0.0
1.53690667654 3.72637971331 0.0
0.0630933234627 3.72637971331 0.0
0.153148105836 3.90639761309 0.0
1.4478092366 3.90500627713 0.0
0.512139854501 3.90538519137 0.0
0.750930702019 3.90340708 0.0
0.0409150717909 3.90046251393 0.0
1.55908492821 3.90046251393 0.0
0.702096631597 3.96656725638 0.0
0.246204062466 3.82734823738 0.0
0.872012730916 3.80079945556 0.0
0.313419524246 3.75328100976 0.0
1.26305184675 3.57725747237 0.0
1.04341944162 3.90846795586 0.0
0.697725469476 3.93030230037 0.0
0.27003033309 3.96477332623 0.0
0.632456188669 3.80120134001 0.0
0.55988813035 3.96676596088 0.0
0.798125231733 3.9668778541 0.0
0.861599835739 3.96514225679 0.0
0.130196681328 3.96566148827 0.0
1.46980331867 3.96566148827 0.0
0.337465698618 3.96873835045 0.0
1.10690030388 3.57445060302 0.0
1.07038768144 3.96631210642 0.0
0.201908835349 3.96783542832 0.0
1.17640357301 3.96795841043 0.0
0.482502283815 3.8454083814 0.0
1.37723451734 3.90442225885 0.0
0.722497886517 3.84543272537 0.0
0.254749007352 3.57960328731 0.0
0.449206209982 3.91785378051 0.0
0.907803563184 3.91575967116 0.0
0.997592319531 3.96832081731 0.0
1.3597087328 3.59165409162 0.0
0.797785363131 3.87112617582 0.0
0.557788209884 3.87112741711 0.0
0.133223775006 3.57024633267 0.0
1.46673023696 3.57019175074 0.0
0.296361477075 3.90524448543 0.0
1.29555045611 3.90092076583 0.0
1.11951450862 3.79592056714 0.0
0.341558640376 3.57546927501 0.0
0.974255514016 3.92370320024 0.0
0.664786082443 3.91707165091 0.0
1.1442561544 3.86460464827 0.0
0.430695849932 3.74774845865 0.0
1.22439218721 3.92431164104 0.0
0.917330800791 3.76752811157 0.0
0.0995806821614 3.83759752714 0.0
1.50041931784 3.83759752714 0.0
0.586492545959 3.6571718064 0.0
1.16809690663 3.90376349956 0.0
0.490525946651 3.9687439861 0.0
0.170108846494 3.77025381333 0.0
0.726723612771 3.96611364881 0.0
1.42998397347 3.77014833166 0.0
1.55978981314 3.82099569701 0.0
0.0402101868575 3.82099569701 0.0
1.10043652243 3.92805072974 0.0
1.34111814411 3.91924529479 0.0
1.27430066613 3.93505265881 0.0
0.56431092584 3.57086686051 0.0
0.930516510487 3.96969091611 0.0
1.17713743504 3.67180033503 0.0
0.801256410508 3.5635758738 0.0
1.37979186382 3.84566323689 0.0
1.02277822921 3.7577258162 0.0
0.252009847995 3.68167957306 0.0
0.0497138210057 3.58866012032 0.0
1.55028617899 3.58866012032 0.0
0.466046622144 3.57331739513 0.0
0.343019074867 3.81481221655 0.0
0.0645235269233 3.96909610548 0.0
1.53547647308 3.96909610548 0.0
0.0310141903995 3.92955737583 0.0
[...]
POINT_DATA 856
VECTORS Displacement float
0.0 0.0 0
0.0 0.0 0
0.044324492053 -0.0711762375697 0
-0.0443315945247 -0.0711921577024 0
0.0 0.0 0
0.0 0.0 0
0.0 0.0 0
0.0 0.0 0
0.0 0.0 0
0.0 0.0 0
0.0 0.0 0
0.0 0.0 0
0.0 0.0 0
0.0 0.0 0
0.0 0.0 0
0.0 0.0 0
0.0 0.0 0
0.0 0.0 0
0.0 0.0 0
0.0 0.0 0
0.0 0.0 0
0.0 0.0 0
0.0 0.0 0
0.0 0.0 0
0.0 0.0 0
0.0 0.0 0
0.0137697090871 -0.0138372327215 0
0.0208566134951 -0.0227670627431 0
0.0261672375792 -0.029966314024 0
0.0299074272153 -0.0361392985263 0
0.0328105461049 -0.0416510264636 0
0.0351529056756 -0.04660388842 0
0.0370363870761 -0.0511235148753 0
0.0386683527845 -0.055244066835 0
0.0400562024693 -0.0590180620516 0
0.0412850414205 -0.0624826551098 0
0.0423903010375 -0.0656517766528 0
0.0434001227546 -0.0685428288384 0
0.0430993083693 -0.0702597545632 0
0.0418696445824 -0.0693341369805 0
0.0406294240495 -0.0684053740548 0
0.0393734015597 -0.0674785060034 0
0.0381038989128 -0.0665635264287 0
0.0368229344125 -0.0656689464321 0
0.035527028317 -0.064798831542 0
0.0342289311556 -0.0639625502131 0
0.0329212906369 -0.0631630306887 0
0.0316197985255 -0.0624021080136 0
0.0303159491796 -0.0616828210078 0
0.0290225248283 -0.0610063210321 0
0.0277335322616 -0.0603754094364 0
0.0264614159708 -0.0597947117004 0
0.0252124293387 -0.0592487439065 0
0.023971108192 -0.0587539350731 0
0.022755605867 -0.0582927101208 0
0.0215666085947 -0.0578684654297 0
0.020395605319 -0.0574811574663 0
0.0192393402045 -0.057132278275 0
0.0181121349946 -0.0568083117681 0
0.0170012837364 -0.0565256014624 0
0.0159211962561 -0.0562652018386 0
0.0148666540217 -0.0560302741209 0
0.0138270582137 -0.0558197420939 0
0.0128086597243 -0.0556237205863 0
0.0118071377784 -0.0554569435251 0
0.0108262585335 -0.0552998294766 0
0.00985980542388 -0.0551703875056 0
0.00891205095404 -0.0550504133956 0
0.00797846299164 -0.0549453836523 0
0.00705499840755 -0.0548573092421 0
0.00614693868342 -0.0547794018716 0
0.00524697654608 -0.0547171368328 0
0.00435869563461 -0.0546626878471 0
0.00347815400403 -0.0546212691008 0
0.00260322685592 -0.0545849495568 0
0.00173240933285 -0.0545612712444 0
0.000864394812049 -0.0545476221244 0
-1.9313317354e-06 -0.0545447924436 0
-0.000868433478063 -0.0545497676533 0
-0.00173603235677 -0.0545633331362 0
-0.00260531484956 -0.0545866177814 0
-0.0034811885408 -0.0546173767346 0
-0.00436254980124 -0.0546614286505 0
-0.00525094272896 -0.0547169643166 0
-0.0061492616065 -0.0547825219791 0
-0.00705758925717 -0.0548551303663 0
-0.00797715904868 -0.054942413826 0
-0.00891513961231 -0.0550439600996 0
-0.00986612171981 -0.0551644834466 0
-0.0108277376751 -0.0552969499653 0
-0.0118095634547 -0.0554535487657 0
-0.0128077131013 -0.0556200528572 0
-0.0138245367984 -0.0558105806163 0
-0.0148682311484 -0.0560164604108 0
-0.0159287790577 -0.0562594029513 0
-0.0170108897611 -0.056517811439 0
-0.0181119495918 -0.0568106995606 0
-0.0192387070562 -0.0571267791822 0
-0.020396688401 -0.0574778318286 0
-0.0215705939165 -0.0578653105003 0
-0.0227641620955 -0.0582898444117 0
-0.0239851228215 -0.0587534540771 0
-0.0252199053163 -0.0592530007376 0
-0.0264703121975 -0.0597965207097 0
-0.0277447327511 -0.0603778680925 0
-0.0290258659053 -0.0610121685372 0
-0.0303244729783 -0.0616851515399 0
-0.0316276720469 -0.0624088735464 0
-0.0329287411787 -0.0631713310456 0
-0.0342358720861 -0.0639715995752 0
-0.0355341073342 -0.0648091060226 0
-0.0368299045082 -0.0656801332917 0
-0.0381107958979 -0.066575382107 0
-0.0393803359852 -0.0674909563281 0
-0.0406364393115 -0.0684185682487 0
-0.0418767030542 -0.0693481911217 0
-0.0431064032286 -0.0702747287372 0
-0.0434062717889 -0.0685587572357 0
-0.0423953718959 -0.0656677181147 0
-0.0412887366871 -0.0624985612662 0
-0.0400582312014 -0.05903367193 0
-0.0386686772558 -0.055258729022 0
-0.0370357640591 -0.0511363926226 0
-0.0351516860616 -0.0466140598106 0
-0.0328112800593 -0.0416568708247 0
-0.0299150282474 -0.036140330815 0
-0.0261878779834 -0.0299642544291 0
-0.0208881095557 -0.0227698536639 0
-0.0137949234194 -0.0138463981138 0
-0.0176940397524 -0.0287762110062 0
0.0175588098643 -0.0284459651728 0
-0.00902062677431 -0.0268508307162 0
-0.0020016552588 -0.0263370597098 0
0.00456918284477 -0.0265170239139 0
0.013089009475 -0.0340769252644 0
-0.0303968502566 -0.0480059587794 0
0.0303924014087 -0.0479961980302 0
-0.0167116917179 -0.0385764682752 0
-0.00706890570731 -0.0365866296397 0
0.00153672819261 -0.0362963655229 0
0.00948039495209 -0.0390076864499 0
-0.0238995160312 -0.0448301364315 0
0.0238560606187 -0.0448220726445 0
-0.0134929885054 -0.0426960909637 0
-0.00372510492818 -0.0421268871989 0
0.00585913922723 -0.0422550151256 0
0.0194105345488 -0.0451611363061 0
0.0138015067994 -0.0449696094029 0
-0.0104190076201 -0.0453945264347 0
-0.000444101273386 -0.0447578328809 0
-0.03681240145 -0.0587727345098 0
0.036808172984 -0.0587596551348 0
0.0235709152485 -0.0314657796936 0
-0.0235675570463 -0.0314899242972 0
-0.0211821524268 -0.0483915750034 0
0.00557567733629 -0.0165823662413 0
-0.029359167097 -0.0530186633206 0
0.0294897879077 -0.0532838446555 0
-0.00697538300439 -0.04563673081 0
0.00282522548778 -0.0454123538585 0
0.00125945277685 -0.0218690033014 0
-0.00468063813369 -0.0226643324705 0
-0.0171670544426 -0.0479532669062 0
-0.0115577650929 -0.0237363534811 0
0.00876699511552 -0.0466690238724 0
0.00964333798695 -0.0193238976624 0
0.017305208767 -0.0487013301582 0
0.0238925748733 -0.0511137242271 0
-0.0336783241443 -0.0575190706885 0
0.0336731385943 -0.0575082124615 0
0.00799538023215 -0.0269745318418 0
0.011595094143 -0.048119448394 0
-0.0251430310834 -0.0521130349289 0
0.0165598050891 -0.0334973172593 0
-0.00101917579402 -0.0352925461861 0
-0.00965758151756 -0.0358558248673 0
-0.0118854386613 -0.0151582274121 0
0.0115660722449 -0.0147143427311 0
0.00203771807955 -0.0125209910246 0
-0.00411293353866 -0.0120533637855 0
-0.000685113898301 -0.0129123836962 0
-0.013573692385 -0.0489933154646 0
-0.00280192473534 -0.0479536875559 0
-0.0240661365909 -0.0385145330635 0
0.0237995971772 -0.0382634791508 0
0.0053918715979 -0.0482963640352 0
-0.0343701236273 -0.0505304461568 0
0.0343711441379 -0.050516247633 0
0.0209427490553 -0.0515500900812 0
-0.0183992819189 -0.0351658139072 0
-0.0104952797702 -0.0173111882318 0
-0.00545523263121 -0.0111426303953 0
0.00128606643921 -0.0480449247313 0
-0.00887262209568 -0.0488154182449 0
-0.00551840558143 -0.0492511563746 0
0.0272420430944 -0.0540427134445 0
0.00431709597468 -0.0337080743246 0
-0.0127637370914 -0.0350871341434 0
-0.00391416887118 -0.0336020749936 0
-0.0197725050265 -0.0515211985034 0
0.0157459712404 -0.0407216961286 0
0.0158019041956 -0.0506900467361 0
-0.0283318758687 -0.0561733836367 0
-0.00190061538526 -0.0107256734503 0
0.00673452958344 -0.0368103383736 0
0.0115675058357 -0.0371789719672 0
0.0188460200429 -0.0214970462457 0
-0.0188686654322 -0.0215095659812 0
-0.0117957925234 -0.0507146310938 0
-0.0157799601645 -0.0514617490701 0
-0.00118071946538 -0.0498638255466 0
0.0303794991567 -0.0412081628116 0
-0.0303758236059 -0.0412217899494 0
0.00732649220834 -0.0502437509698 0
-0.0234299637584 -0.0539140631358 0
0.0110843159684 -0.0177255765267 0
0.0138934129189 -0.0508646459251 0
0.00922027379891 -0.0236413074688 0
0.00380438050339 -0.0499327920001 0
-0.0320531834238 -0.0583955508314 0
0.0320678754933 -0.0588500766281 0
-0.0399447191784 -0.0641464230549 0
0.0399393740398 -0.0641324536214 0
0.0199425009974 -0.0407960566803 0
0.0211652044658 -0.0374067391229 0
0.00365140145424 -0.0396889999163 0
0.00043702155531 -0.029888292079 0
-0.0070390211558 -0.029748659096 0
0.00481074964923 -0.0195362399039 0
-0.0153900589109 -0.0412883637414 0
0.00472605720285 -0.0102271309462 0
-0.00539094404408 -0.0399476376309 0
-0.0372625779757 -0.0625753280647 0
0.0372567766507 -0.0625632459164 0
0.000647360347702 -0.0113209860427 0
-0.0272015970357 -0.0459151653144 0
0.0271898958807 -0.0458997175309 0
-0.0207656971966 -0.0428449782451 0
-0.0072961044052 -0.0503259859514 0
-0.00232496491798 -0.0185069174006 0
0.0101372727557 -0.0508378294407 0
-0.0079783897059 -0.0197496657585 0
0.0262895355397 -0.0559499424816 0
0.00266051529996 -0.0100432120573 0
-0.0276050545276 -0.040551540357 0
0.0276139422387 -0.0405374306632 0
0.0237245052905 -0.054634262896 0
0.0192732505104 -0.052870701511 0
-0.0182474184431 -0.0448685190527 0
-0.0180563677916 -0.0525215108018 0
0.0297729455193 -0.0576161061291 0
0.0128726178808 -0.028414184836 0
-0.0138574892754 -0.0312251766863 0
-0.00817187154274 -0.0422382868649 0
0.00126921699868 -0.0418695931725 0
-0.017679584268 -0.0244906147697 0
0.0176987330508 -0.0244515845569 0
0.01156265125 -0.0429193381887 0
0.00816776616008 -0.0329793870181 0
-0.0337173529535 -0.0539941117463 0
0.0337133726313 -0.0539826085902 0
0.0170649969871 -0.03897576563 0
0.00267572776772 -0.0200788246969 0
-0.00609601835441 -0.0203639689849 0
0.014034519137 -0.025834906162 0
-0.000469752340859 -0.0206634198049 0
0.00769622889232 -0.0409131922999 0
-0.00399324459615 -0.0269371415934 0
-0.0266138612151 -0.0503840578792 0
0.0261914938213 -0.0322912571274 0
-0.0261951532152 -0.0323028468677 0
-0.0307700206764 -0.0519868850045 0
0.030761018326 -0.0518356027744 0
-0.0118304190567 -0.0439803196604 0
-0.00192591472005 -0.0429105142925 0
-0.0373332790695 -0.056376977155 0
0.0373317859256 -0.0563627542579 0
-0.00416466910361 -0.0505821581568 0
-0.0218589414523 -0.0384583013282 0
0.00225894978368 -0.0309551062764 0
-0.015028692113 -0.0277671873579 0
0.00438200329566 -0.00762070591251 0
0.00991593387328 -0.0440692226228 0
-0.00418249166455 -0.0462008509108 0
-0.0260102619815 -0.055480790217 0
-0.00534412796688 -0.0310988054748 0
-0.0105350285264 -0.0511837653246 0
-8.09207677671e-05 -0.050521334179 0
0.00260411499132 -0.0503499204297 0
-0.0347035152066 -0.0607208308689 0
0.0346977487635 -0.0607093868751 0
-0.0221535187772 -0.0543085075329 0
0.00260953237584 -0.00711453661903 0
0.011965623182 -0.0513500974513 0
-0.0302988434924 -0.058109027634 0
0.0173571201926 -0.0526856656321 0
-0.0117261632279 -0.0369553587303 0
0.0265627204339 -0.0491209308326 0
-0.00272667666608 -0.0361004430267 0
-0.00577575409227 -0.00816142615299 0
-0.0150105776924 -0.0460917354202 0
0.00432392801182 -0.0444615937573 0
0.00857729955492 -0.0511366973743 0
0.00688739654119 -0.00952702500678 0
-8.57289215461e-05 -0.0390703955016 0
-0.00924481429492 -0.0395635052269 0
-0.00725423039798 -0.00811830718927 0
0.0072271235154 -0.00810384265123 0
-0.0224682452939 -0.0471275921167 0
0.0218683403574 -0.0463815844002 0
0.0104135043036 -0.031127505144 0
-0.0042053162539 -0.00741915285354 0
0.0071418112736 -0.0456038425366 0
-0.00545226914891 -0.0446800267805 0
0.0133709379347 -0.039493992553 0
-0.0105073736653 -0.0258583960934 0
0.0188601823891 -0.047926480606 0
0.00333873647936 -0.0272404955406 0
-0.0307368858135 -0.0453196796977 0
0.0307367196842 -0.0453036095762 0
-0.00372057893187 -0.0154076743821 0
0.0155045965755 -0.0445506488217 0
-0.0139199323958 -0.0519858492366 0
-0.0228349565501 -0.0334016531718 0
-0.00310778978868 -0.0504812853653 0
0.0228285516378 -0.0333716218828 0
0.0334716792202 -0.0461251087022 0
-0.0334696474418 -0.0461379317215 0
0.0128158039794 -0.0468609011044 0
0.0250688064429 -0.0499217088151 0
0.0218545593129 -0.0502493611308 0
-0.00190779853909 -0.00670919467454 0
0.00559122106772 -0.0510430374856 0
0.00761029418831 -0.0173152915199 0
3.48258029078e-07 -0.00589043636198 0
0.0241209682184 -0.0415764947584 0
0.00624935286084 -0.0262998157596 0
-0.0131712147086 -0.0199898192765 0
-0.013430071635 -0.0131744107984 0
0.0133969661784 -0.0131676664452 0
-0.00283524146596 -0.00693892604067 0
-0.0166109092354 -0.0348108504388 0
-0.0389542082982 -0.0641713494653 0
0.0389484084827 -0.0641583337931 0
-0.0392501998249 -0.0606149354055 0
0.0392466974102 -0.0606004186577 0
-0.000788662848133 -0.00671348766808 0
-0.0196039057256 -0.0431264835641 0
-0.00888715439038 -0.0171324896559 0
-0.00850591057707 -0.0294441292244 0
-0.00103184245522 -0.0290447803543 0
0.000751095895801 -0.00689698084218 0
0.0174726574198 -0.0315138404586 0
-0.02733109807 -0.0432326339052 0
0.0216368683843 -0.0549455793648 0
0.0275250097206 -0.0433080882563 0
0.0144109435566 -0.0325496546248 0
0.00540731987495 -0.0373310120634 0
0.0150442036783 -0.0533912428086 0
0.000235768505211 -0.0352363279496 0
-0.0082778052635 -0.0355875214284 0
0.0278108635357 -0.0572304769224 0
-0.0352341300999 -0.0580373569382 0
0.0352290312977 -0.0580256857923 0
-0.00843358068093 -0.0516107925942 0
-0.00629454362314 -0.0514643332818 0
0.00967372038734 -0.035148254466 0
-0.0355916906617 -0.0553807345364 0
0.0355894139288 -0.0553668724428 0
-0.0199639909179 -0.0252544765801 0
0.0199610139604 -0.0252302581365 0
0.00128307148463 -0.0524802785153 0
0.00253511712162 -0.0414352348215 0
-0.019461782387 -0.0539037550655 0
-0.0414271298692 -0.0663714802458 0
0.0414213032889 -0.0663568334921 0
0.00518462330194 -0.0308296887906 0
-0.00676755504487 -0.0415712437764 0
0.0252223244134 -0.0566784486123 0
-0.0251587487469 -0.0442669283871 0
0.00727065772275 -0.0219501235894 0
-0.0318102298134 -0.0554562101884 0
0.017023019965 -0.0453590818819 0
0.0315112076286 -0.0549317151887 0
-0.017220733794 -0.053783598591 0
0.00310186485748 -0.035182027769 0
0.014426338433 -0.0485852087578 0
-0.00524758470335 -0.0350210960422 0
0.00133130839857 -0.00645719841833 0
-0.0146958443726 -0.0368472653384 0
-0.0273155875666 -0.0490084993322 0
0.0148819626218 -0.0223333308296 0
0.0314628914221 -0.0599915475535 0
-0.0111807965416 -0.0395833628048 0
-0.00185571474906 -0.0388231038201 0
-0.0105883179289 -0.0318417486692 0
-0.0276433370564 -0.0579148453474 0
-0.0093337494821 -0.0459239042573 0
0.000610406749755 -0.0453696609006 0
-0.00251562849929 -0.0311336989192 0
-0.0200563702414 -0.048940308813 0
-0.00516052331882 -0.0511768745445 0
-0.00401571654805 -0.0381728918232 0
-0.0363882667096 -0.0531209978939 0
0.0363885981011 -0.0531071030219 0
0.0102111077911 -0.0475044744721 0
0.00386999011794 -0.0208054682107 0
0.00578454788829 -0.00700844027789 0
-0.0184949800416 -0.0397579530842 0
-0.0252865359826 -0.0567932151764 0
-0.0210869804738 -0.0344309285283 0
-0.0248560391867 -0.0486851610611 0
-0.00662212819828 -0.0246516590752 0
-0.0135206608846 -0.0393085817507 0
-0.0216263771812 -0.0410113317032 0
-0.0054165802435 -0.00658129141929 0
-0.0150856292963 -0.0536185890364 0
-0.0131092061334 -0.0532106946719 0
-0.00217444606022 -0.0520930077469 0
0.0126004765769 -0.0415113302255 0
-0.0326992563104 -0.0498906414992 0
0.0327001216421 -0.0498757106901 0
0.0233103686005 -0.0267068032441 0
-0.0233271916177 -0.0267135516669 0
0.0208616527676 -0.0340032003953 0
-0.000119222005176 -0.0251661642301 0
0.00648998665199 -0.0524142644622 0
-0.0340706777366 -0.0616643581769 0
0.0340147719293 -0.0616491896043 0
-0.0122484395632 -0.0225383344258 0
-0.0209129873312 -0.0545361117495 0
0.00479831276103 -0.0523562996104 0
0.0285381061427 -0.0543719496757 0
-0.012203308202 -0.047422768912 0
-0.00205840965143 -0.046084960247 0
0.0130900939715 -0.0530460705975 0
-0.036558590137 -0.0634473459509 0
0.0365523940082 -0.0634357655171 0
0.0153176882024 -0.0471852145166 0
0.0188532853302 -0.0359003279046 0
-0.00958291239934 -0.0517565872823 0
0.00332372874499 -0.015124910412 0
0.00799025021907 -0.014317327908 0
0.0174827270011 -0.0426632075688 0
0.0111917903765 -0.0529010235397 0
-0.00524465276351 -0.0130563705549 0
0.0232797551322 -0.0460512066382 0
-0.0106617024819 -0.0483292298887 0
-0.000362409177793 -0.0476545833087 0
-0.0290494216115 -0.054853961429 0
-0.00302513745236 -0.044832490838 0
-0.0235223138203 -0.0504921210268 0
0.0216922318576 -0.0414938324318 0
0.000454389451128 -0.0175351358621 0
0.0195567992229 -0.0293538217412 0
0.0230299121882 -0.0559165073218 0
-0.00154810518372 -0.0208961801645 0
0.00808308742624 -0.038117653909 0
-0.00741755211508 -0.0213777765904 0
-0.0138231139976 -0.0461126728903 0
0.0204377655107 -0.0550185461428 0
0.027621514009 -0.0489421128117 0
-0.019668940541 -0.0295979494739 0
0.00146073108495 -0.0177888088231 0
0.0162606954188 -0.0536812392495 0
-0.00143844341571 -0.0126181895828 0
0.0323209721037 -0.0426967056802 0
-0.0323188450268 -0.0427074237672 0
0.00603342642885 -0.0456119523314 0
0.0108879013384 -0.0394294367543 0
-0.0167904227488 -0.0501869043299 0
0.0108669797729 -0.0269637250961 0
-0.0101218341819 -0.0144937883531 0
-0.0296438715872 -0.058977583567 0
-0.0026408337488 -0.00525378078665 0
0.00223180193831 -0.0477919477742 0
-0.00776541293224 -0.0481397186875 0
-0.00634128813716 -0.0480004663212 0
-0.0233630485606 -0.0558406207567 0
-0.0159413839728 -0.0451241349654 0
-0.0354235366396 -0.0603119089525 0
-0.0218273731593 -0.0513916923197 0
0.0354178899708 -0.0603004314447 0
0.0187314858637 -0.0416708558429 0
-0.0113505104099 -0.053100649229 0
-0.000788238178512 -0.0518489470776 0
0.00795281174568 -0.0478251931 0
-0.0189282044508 -0.0334740897983 0
-0.00327519235324 -0.0168523103887 0
0.00662768221722 -0.0322476151632 0
0.0140964838383 -0.0379569946197 0
0.0151526371783 -0.0367929332544 0
0.0110011181401 -0.0501576607292 0
0.00431962095695 -0.0474509116834 0
-0.0184495667217 -0.0486095812241 0
0.0303093911529 -0.0564143973419 0
-0.0140960189844 -0.0287817657311 0
0.00321456422592 -0.0522349641434 0
-0.0143926648932 -0.0241655447559 0
0.00275490309316 -0.00533794587834 0
-0.0265354584519 -0.0525839055996 0
-0.0332651881759 -0.0587430561179 0
0.0328194726347 -0.0582291332096 0
0.00211392111054 -0.0266707003015 0
-0.0406114851217 -0.0667484807191 0
0.0406051673659 -0.0667347755579 0
0.00790373184945 -0.052407202596 0
-0.0316151927548 -0.0600468393311 0
-0.0270713927227 -0.0371063051883 0
0.0270732999718 -0.0370889038157 0
0.0102844330197 -0.0230978415943 0
0.0126845499069 -0.0500342676516 0
0.0201905393056 -0.0482388499739 0
-0.0244511760469 -0.0534336115802 0
0.00133548133515 -0.0326373493015 0
-0.000723748861458 -0.0041906001519 0
0.00874386011084 -0.0435576452108 0
-0.00480577454402 -0.0420022898837 0
-0.00667859854112 -0.0329840700842 0
-0.0105702891445 -0.042254559769 0
-0.000981258928019 -0.0416464632379 0
-0.0407712390767 -0.0637865104604 0
0.0407665136955 -0.063771595839 0
-0.0110396227659 -0.0293879587331 0
0.0196140347678 -0.0509158253809 0
-0.0326462716157 -0.0542130449749 0
-0.00742851688605 -0.0527720426059 0
0.0326287497366 -0.0541748981598 0
0.0247040838416 -0.0538682761016 0
0.00180855476366 -0.0447773195144 0
-0.00896989904059 -0.0194300746414 0
-0.00536285211411 -0.0271013279014 0
0.00705001804362 -0.0143187865618 0
-0.00798041425889 -0.0451904089249 0
-0.0383494125337 -0.0619696593573 0
0.0383443667151 -0.0619564231404 0
0.0142863488962 -0.02867788261 0
0.0149973508329 -0.0177989631459 0
-0.0150800924535 -0.0179151914172 0
0.0257455196389 -0.0528653221145 0
0.000856862827369 -0.0385674771098 0
-0.00814450550194 -0.0389302563861 0
0.00485078323851 -0.0123185942786 0
0.00433954419716 -0.0153299648761 0
-0.0224314417953 -0.0271593813998 0
0.0224236039136 -0.0271449468652 0
-0.0228459764546 -0.0453450501258 0
-0.0015101010717 -0.00437610822627 0
0.0291359655061 -0.0589959693556 0
0.0113723788047 -0.0204483223576 0
0.00937594925589 -0.0525450170465 0
-0.0292688662292 -0.0481125155718 0
-0.0187672248138 -0.0513876562416 0
0.0292894366874 -0.0481316063114 0
0.0178963962977 -0.0376153008888 0
-0.00381857070694 -0.0526812120423 0
0.00487138520952 -0.0398752828266 0
0.0022095525921 -0.0050334873063 0
0.0184326860649 -0.0544050309273 0
0.0143371778495 -0.0238679511202 0
0.0166709824805 -0.0497203129439 0
0.0120557490147 -0.0347776116106 0
0.0253871150821 -0.0457367501024 0
0.00164175782584 -0.00531455387115 0
-0.0166756988919 -0.0413352480773 0
-0.0381161028331 -0.0651870807783 0
0.00930415261517 -0.0270609315556 0
0.0381096712095 -0.0651749593841 0
0.00637453988321 -0.0237750272615 0
-0.0146665331697 -0.0489139885001 0
-0.0290335345945 -0.0503156438009 0
0.0223502837481 -0.0531240812032 0
-0.026734961962 -0.0548371491364 0
-0.0127286259945 -0.0501099966976 0
-0.00209630284005 -0.0490350845498 0