# vtk DataFile Version 2.0
Generated with Solid Solver
ASCII
DATASET UNSTRUCTURED_GRID
POINTS 856 float 
0.0 3.5 0.0
1.6 3.5 0.0
1.6 4.0 0.0
0.0 4.0 0.0
0.0695652173912 3.5 0.0
0.139130434782 3.5 0.0
0.208695652174 3.5 0.0
0.278260869565 3.5 0.0
0.347826086956 3.5 0.0
0.417391304347 3.5 0.0
0.486956521738 3.5 0.0
0.556521739129 3.5 0.0
0.62608695652 3.5 0.0
0.695652173911 3.5 0.0
0.765217391302 3.5 0.0
0.834782608694 3.5 0.0
0.904347826085 3.5 0.0
0.973913043477 3.5 0.0
1.04347826087 3.5 0.0
1.11304347826 3.5 0.0
1.18260869565 3.5 0.0
1.25217391304 3.5 0.0
1.32173913043 3.5 0.0
1.39130434783 3.5 0.0
1.46086956522 3.5 0.0
1.53043478261 3.5 0.0
1.6 3.56430812594 0.0
1.6 3.62270835268 0.0
1.6 3.6757434324 0.0
1.6 3.7239062376 0.0
1.6 3.76764438351 0.0
1.6 3.80736436404 0.0
1.6 3.84343531219 0.0
1.6 3.87619247117 0.0
1.6 3.90594026707 0.0
1.6 3.93295517284 0.0
1.6 3.95748825478 0.0
1.6 3.97976750982 0.0
1.58000000587 4.0 0.0
1.55999996633 4.0 0.0
1.54000002214 4.0 0.0
1.51999997198 4.0 0.0
1.50000000455 4.0 0.0
1.48000000216 4.0 0.0
1.45999997931 4.0 0.0
1.44000002484 4.0 0.0
1.41999997044 4.0 0.0
1.40000002096 4.0 0.0
1.37999999963 4.0 0.0
1.35999999626 4.0 0.0
1.34000002179 4.0 0.0
1.31999997343 4.0 0.0
1.3000000318 4.0 0.0
1.27999998783 4.0 0.0
1.26000000202 4.0 0.0
1.24000001295 4.0 0.0
1.21999998074 4.0 0.0
1.20000003685 4.0 0.0
1.17999998163 4.0 0.0
1.16000001473 4.0 0.0
1.14000000469 4.0 0.0
1.11999999139 4.0 0.0
1.10000003625 4.0 0.0
1.07999997877 4.0 0.0
1.06000002802 4.0 0.0
1.04000000338 4.0 0.0
1.02000000764 4.0 0.0
1.00000002986 4.0 0.0
0.979999980237 4.0 0.0
0.960000035522 4.0 0.0
0.939999990881 4.0 0.0
0.920000014619 4.0 0.0
0.900000017903 4.0 0.0
0.879999986222 4.0 0.0
0.860000037278 4.0 0.0
0.839999982352 4.0 0.0
0.820000022783 4.0 0.0
0.800000000002 4.0 0.0
0.779999977222 4.0 0.0
0.760000017652 4.0 0.0
0.739999962726 4.0 0.0
0.720000013782 4.0 0.0
0.699999982101 4.0 0.0
0.679999985385 4.0 0.0
0.660000009123 4.0 0.0
0.639999964482 4.0 0.0
0.620000019766 4.0 0.0
0.599999970141 4.0 0.0
0.57999999236 4.0 0.0
0.559999996622 4.0 0.0
0.539999971983 4.0 0.0
0.520000021235 4.0 0.0
0.499999963756 4.0 0.0
0.480000008612 4.0 0.0
0.459999995315 4.0 0.0
0.439999985272 4.0 0.0
0.420000018371 4.0 0.0
0.39999996315 4.0 0.0
0.380000019261 4.0 0.0
0.359999987052 4.0 0.0
0.339999997986 4.0 0.0
0.320000012172 4.0 0.0
0.299999968206 4.0 0.0
0.280000026575 4.0 0.0
0.259999978213 4.0 0.0
0.240000003742 4.0 0.0
0.220000000371 4.0 0.0
0.199999979041 4.0 0.0
0.180000029557 4.0 0.0
0.159999975162 4.0 0.0
0.140000020694 4.0 0.0
0.119999997846 4.0 0.0
0.0999999954514 4.0 0.0
0.0800000280232 4.0 0.0
0.0599999778571 4.0 0.0
0.0400000336732 4.0 0.0
0.0199999941324 4.0 0.0
0.0 3.97976750982 0.0
0.0 3.95748825478 0.0
0.0 3.93295517284 0.0
0.0 3.90594026707 0.0
0.0 3.87619247117 0.0
0.0 3.84343531219 0.0
0.0 3.80736436404 0.0
0.0 3.76764438351 0.0
0.0 3.7239062376 0.0
0.0 3.6757434324 0.0
0.0 3.62270835268 0.0
0.0 3.56430812594 0.0
0.249757905714 3.75212552678 0.0
1.35000000902 3.74954526597 0.0
0.488714190926 3.75947467509 0.0
0.727445026698 3.75983525744 0.0
0.962900270309 3.76055270856 0.0
1.17161197633 3.81755162829 0.0
0.130754031542 3.86878251069 0.0
1.46924596846 3.86878251069 0.0
0.369913852535 3.84868154079 0.0
0.603236233099 3.84763103091 0.0
0.843402107212 3.84736931152 0.0
1.05041705507 3.86611282467 0.0
0.250539323282 3.87785527135 0.0
1.34882231626 3.87787871523 0.0
0.468661896861 3.89189320321 0.0
0.704258117309 3.89639128976 0.0
0.94963922804 3.89654080835 0.0
1.25000000748 3.89875296068 0.0
1.12879020517 3.91059303421 0.0
0.548928478218 3.91905583534 0.0
0.7889268651 3.91906062813 0.0
0.0712526194949 3.93011432704 0.0
1.52874738051 3.93011432704 0.0
1.4740071133 3.74293106904 0.0
0.125992886699 3.74293106904 0.0
0.329956761073 3.92118145982 0.0
1.09412206522 3.66725831207 0.0
0.190000004299 3.92542384899 0.0
1.41098423528 3.92728100222 0.0
0.629999992124 3.92414139091 0.0
0.87000001175 3.92414140592 0.0
0.853391941071 3.71944243214 0.0
0.610032822379 3.72536074396 0.0
0.41090315692 3.92892991009 0.0
0.370435019193 3.7251305208 0.0
1.01000001875 3.93130199947 0.0
1.22823348571 3.68694249365 0.0
1.18894423177 3.93487447818 0.0
1.31063576122 3.93502724255 0.0
0.129927636183 3.94112156482 0.0
1.47007236382 3.94112156482 0.0
1.07646504896 3.76194504855 0.0
1.07000000339 3.94017719684 0.0
0.270000002394 3.93875928556 0.0
1.26759839792 3.80243333593 0.0
0.770332946246 3.83880063275 0.0
0.530342720064 3.83880306325 0.0
0.189898092614 3.63474333735 0.0
1.4101772205 3.6313147556 0.0
0.942883893479 3.62966700486 0.0
0.510631148905 3.62429064243 0.0
0.754670889573 3.63369080225 0.0
0.489999986184 3.94463854908 0.0
0.732500655853 3.9452729887 0.0
0.193627936713 3.81528931126 0.0
1.40183871842 3.81461096917 0.0
0.928721275957 3.94715071018 0.0
0.0604617896557 3.86281267064 0.0
1.53953821034 3.86281267065 0.0
1.25036152032 3.94913766834 0.0
0.30096552553 3.81141484704 0.0
0.297089357677 3.66359682597 0.0
0.394212311705 3.61316974741 0.0
0.831051681923 3.94633984116 0.0
0.592085081305 3.94901138542 0.0
0.669405291514 3.95495209798 0.0
1.3611855791 3.94637621082 0.0
0.928496698914 3.82436133158 0.0
0.444093171593 3.8271987226 0.0
0.683378885111 3.8234871366 0.0
0.372430737197 3.95235208784 0.0
1.19348789949 3.87019408468 0.0
1.15124363553 3.95467023547 0.0
0.229287653728 3.96038323295 0.0
0.646635519079 3.61231195482 0.0
0.986819459779 3.84973028271 0.0
1.11214815433 3.84770266014 0.0
1.50610225987 3.6604664246 0.0
0.0938977401332 3.6604664246 0.0
0.531976760298 3.96138656711 0.0
0.451361041931 3.96112773652 0.0
0.771976835888 3.96138886125 0.0
1.53311213884 3.79435404356 0.0
0.066887861162 3.79435404356 0.0
0.970836553066 3.9620233382 0.0
0.311702426505 3.96111572975 0.0
1.31698094247 3.6658628839 0.0
1.11177843379 3.95948388532 0.0
1.15003411964 3.72957279566 0.0
0.890058924798 3.96133576813 0.0
0.169108880648 3.96040269401 0.0
1.42850737314 3.96465656678 0.0
0.0426347993992 3.9610175717 0.0
1.5573652006 3.9610175717 0.0
1.28993057938 3.85776473604 0.0
1.34652710411 3.82072629166 0.0
0.897316840472 3.87585124602 0.0
0.814484972147 3.79171515708 0.0
0.573290986674 3.7879873938 0.0
1.02164717476 3.69631051635 0.0
0.41798215839 3.87594988344 0.0
1.18469655214 3.6045863568 0.0
0.657426542805 3.87734841349 0.0
0.0893439701605 3.9657484063 0.0
1.51065602984 3.9657484063 0.0
0.850202761783 3.61862953305 0.0
0.185775988195 3.86980628439 0.0
1.41422401181 3.86980628439 0.0
0.305957202498 3.87340573583 0.0
0.629999992124 3.96272981278 0.0
0.686026569054 3.68766751472 0.0
1.03220081924 3.96436031967 0.0
0.445441337222 3.69456289967 0.0
1.33308537187 3.96770341358 0.0
1.0249206042 3.60512275769 0.0
0.128645746764 3.81165411571 0.0
1.47135425324 3.81165411571 0.0
1.29077706219 3.96625078806 0.0
1.21302440104 3.96491551313 0.0
0.373320303365 3.89968789902 0.0
0.409457647309 3.96502881891 0.0
1.39076199588 3.96614348387 0.0
1.2156032112 3.76624353786 0.0
0.383301616321 3.78976397621 0.0
0.593246012246 3.8948346816 0.0
0.833004203108 3.89475034107 0.0
0.187583903859 3.70688411961 0.0
1.41241609614 3.70688411961 0.0
1.08573330585 3.89673930733 0.0
1.04303343403 3.81530385578 0.0
0.103644791029 3.90516202075 0.0
1.49635520897 3.90516202075 0.0
1.23586605501 3.85112068621 0.0
0.921814270996 3.70213058021 0.0
0.532219762185 3.7029333087 0.0
1.28217045716 3.7375098981 0.0
0.779621693208 3.70806977531 0.0
0.998890529268 3.88397615296 0.0
0.659406618131 3.76469373474 0.0
0.230043799244 3.91599372373 0.0
1.53690667654 3.72637971331 0.0
0.0630933234627 3.72637971331 0.0
0.153148105836 3.90639761309 0.0
1.4478092366 3.90500627713 0.0
0.512139854501 3.90538519137 0.0
0.750930702019 3.90340708 0.0
0.0409150717909 3.90046251393 0.0
1.55908492821 3.90046251393 0.0
0.702096631597 3.96656725638 0.0
0.246204062466 3.82734823738 0.0
0.872012730916 3.80079945556 0.0
0.313419524246 3.75328100976 0.0
1.26305184675 3.57725747237 0.0
1.04341944162 3.90846795586 0.0
0.697725469476 3.93030230037 0.0
0.27003033309 3.96477332623 0.0
0.632456188669 3.80120134001 0.0
0.55988813035 3.96676596088 0.0
0.798125231733 3.9668778541 0.0
0.861599835739 3.96514225679 0.0
0.130196681328 3.96566148827 0.0
1.46980331867 3.96566148827 0.0
0.337465698618 3.96873835045 0.0
1.10690030388 3.57445060302 0.0
1.07038768144 3.96631210642 0.0
0.201908835349 3.96783542832 0.0
1.17640357301 3.96795841043 0.0
0.482502283815 3.8454083814 0.0
1.37723451734 3.90442225885 0.0
0.722497886517 3.84543272537 0.0
0.254749007352 3.57960328731 0.0
0.449206209982 3.91785378051 0.0
0.907803563184 3.91575967116 0.0
0.997592319531 3.96832081731 0.0
1.3597087328 3.59165409162 0.0
0.797785363131 3.87112617582 0.0
0.557788209884 3.87112741711 0.0
0.133223775006 3.57024633267 0.0
1.46673023696 3.57019175074 0.0
0.296361477075 3.90524448543 0.0
1.29555045611 3.90092076583 0.0
1.11951450862 3.79592056714 0.0
0.341558640376 3.57546927501 0.0
0.974255514016 3.92370320024 0.0
0.664786082443 3.91707165091 0.0
1.1442561544 3.86460464827 0.0
0.430695849932 3.74774845865 0.0
1.22439218721 3.92431164104 0.0
0.917330800791 3.76752811157 0.0
0.0995806821614 3.83759752714 0.0
1.50041931784 3.83759752714 0.0
0.586492545959 3.6571718064 0.0
1.16809690663 3.90376349956 0.0
0.490525946651 3.9687439861 0.0
0.170108846494 3.77025381333 0.0
0.726723612771 3.96611364881 0.0
1.42998397347 3.77014833166 0.0
1.55978981314 3.82099569701 0.0
0.0402101868575 3.82099569701 0.0
1.10043652243 3.92805072974 0.0
1.34111814411 3.91924529479 0.0
1.27430066613 3.93505265881 0.0
0.56431092584 3.57086686051 0.0
0.930516510487 3.96969091611 0.0
1.17713743504 3.67180033503 0.0
0.801256410508 3.5635758738 0.0
1.37979186382 3.84566323689 0.0
1.02277822921 3.7577258162 0.0
0.252009847995 3.68167957306 0.0
0.0497138210057 3.58866012032 0.0
1.55028617899 3.58866012032 0.0
0.466046622144 3.57331739513 0.0
0.343019074867 3.81481221655 0.0
0.0645235269233 3.96909610548 0.0
1.53547647308 3.96909610548 0.0
0.0310141903995 3.92955737583 0.0
[...]
POINT_DATA 856
VECTORS Displacement float
0.0 0.0 0
0.0 0.0 0
0.0265946952318 -0.0427057425418 0
-0.0265989567148 -0.0427152946215 0
0.0 0.0 0
0.0 0.0 0
0.0 0.0 0
0.0 0.0 0
0.0 0.0 0
0.0 0.0 0
0.0 0.0 0
0.0 0.0 0
0.0 0.0 0
0.0 0.0 0
0.0 0.0 0
0.0 0.0 0
0.0 0.0 0
0.0 0.0 0
0.0 0.0 0
0.0 0.0 0
0.0 0.0 0
0.0 0.0 0
0.0 0.0 0
0.0 0.0 0
0.0 0.0 0
0.0 0.0 0
0.00826182545229 -0.00830233963291 0
0.0125139680971 -0.0136602376459 0
0.0157003425475 -0.0179797884144 0
0.0179444563292 -0.0216835791158 0
0.019686327663 -0.0249906158781 0
0.0210917434054 -0.027962333052 0
0.0222218322457 -0.0306741089252 0
0.0232010116707 -0.033146440101 0
0.0240337214816 -0.0354108372309 0
0.0247710248523 -0.0374895930659 0
0.0254341806225 -0.0393910659917 0
0.0260400736528 -0.041125697303 0
0.0258595850216 -0.0421558527379 0
0.0251217867494 -0.0416004821883 0
0.0243776544297 -0.0410432244329 0
0.0236240409358 -0.040487103602 0
0.0228623393477 -0.0399381158572 0
0.0220937606475 -0.0394013678593 0
0.0213162169902 -0.0388792989252 0
0.0205373586933 -0.0383775301279 0
0.0197527743821 -0.0378978184132 0
0.0189718791153 -0.0374412648082 0
0.0181895695077 -0.0370096926047 0
0.017413514897 -0.0366037926193 0
0.0166401193569 -0.0362252456618 0
0.0158768495825 -0.0358768270202 0
0.0151274576032 -0.0355492463439 0
0.0143826649152 -0.0352523610439 0
0.0136533635202 -0.0349756260725 0
0.0129399651568 -0.0347210792578 0
0.0122373631914 -0.0344886944798 0
0.0115436041227 -0.034279366965 0
0.0108672809968 -0.0340849870609 0
0.0102007702418 -0.0339153608775 0
0.00955271775369 -0.0337591211031 0
0.00891999241305 -0.0336181644726 0
0.00829623492821 -0.0334918452563 0
0.00768519583458 -0.0333742323518 0
0.00708428266705 -0.0332741661151 0
0.00649575512008 -0.0331798976859 0
0.00591588325433 -0.0331022325033 0
0.00534723057243 -0.0330302480374 0
0.00478707779499 -0.0329672301914 0
0.00423299904453 -0.0329143855453 0
0.00368816321005 -0.0328676411229 0
0.00314818592765 -0.0328302820997 0
0.00261521738077 -0.0327976127082 0
0.00208689240242 -0.0327727614605 0
0.00156193611355 -0.0327509697341 0
0.00103944559971 -0.0327367627467 0
0.000518636887229 -0.0327285732746 0
-1.15879904124e-06 -0.0327268754662 0
-0.000521060086838 -0.032729860592 0
-0.00104161941406 -0.0327379998817 0
-0.00156318890973 -0.0327519706688 0
-0.00208871312448 -0.0327704260408 0
-0.00261752988075 -0.0327968571903 0
-0.00315056563738 -0.0328301785899 0
-0.0036895569639 -0.0328695131875 0
-0.0042345535543 -0.0329130782198 0
-0.00478629542921 -0.0329654482956 0
-0.00534908376739 -0.0330263760597 0
-0.00591967303188 -0.033098690068 0
-0.00649664260504 -0.0331781699792 0
-0.00708573807283 -0.0332721292594 0
-0.00768462786078 -0.0333720317143 0
-0.00829472207902 -0.0334863483698 0
-0.00892093868904 -0.0336098762465 0
-0.00955726743464 -0.0337556417708 0
-0.0102065338566 -0.0339106868634 0
-0.0108671697551 -0.0340864197363 0
-0.0115432242337 -0.0342760675093 0
-0.0122380130406 -0.0344866990972 0
-0.0129423563499 -0.0347191863002 0
-0.0136584972573 -0.034973906647 0
-0.0143910736929 -0.0352520724462 0
-0.0151319431898 -0.0355518004425 0
-0.0158821873185 -0.0358779124258 0
-0.0166468396506 -0.0362267208555 0
-0.0174155195432 -0.0366073011223 0
-0.018194683787 -0.0370110909239 0
-0.0189766032281 -0.0374453241278 0
-0.0197572447072 -0.0379027986274 0
-0.0205415232516 -0.0383829597451 0
-0.0213204644005 -0.0388854636136 0
-0.0220979427049 -0.039408079975 0
-0.0228664775388 -0.0399452292642 0
-0.0236282015911 -0.0404945737969 0
-0.0243818635869 -0.0410511409492 0
-0.0251260218325 -0.041608914673 0
-0.0258638419372 -0.0421648372423 0
-0.0260437630733 -0.0411352543414 0
-0.0254372231375 -0.0394006308688 0
-0.0247732420122 -0.0374991367597 0
-0.0240349387208 -0.035420203158 0
-0.0232012063535 -0.0331552374132 0
-0.0222214584354 -0.0306818355736 0
-0.021091011637 -0.0279684358863 0
-0.0196867680356 -0.0249941224948 0
-0.0179490169484 -0.021684198489 0
-0.01571272679 -0.0179785526574 0
-0.0125328657334 -0.0136619121983 0
-0.00827695405163 -0.0083078388683 0
-0.0106164238514 -0.0172657266037 0
0.0105352859186 -0.0170675791037 0
-0.00541237606458 -0.0161104984297 0
-0.00120099315528 -0.0158022358259 0
0.00274150970686 -0.0159102143483 0
0.00785340568498 -0.0204461551587 0
-0.0182381101539 -0.0288035752676 0
0.0182354408452 -0.0287977188181 0
-0.0100270150308 -0.0231458809651 0
-0.00424134342439 -0.0219519777838 0
0.000922036915568 -0.0217778193137 0
0.00568823697125 -0.0234046118699 0
-0.0143397096187 -0.0268980818589 0
0.0143136363712 -0.0268932435867 0
-0.00809579310326 -0.0256176545782 0
-0.00223506295691 -0.0252761323193 0
0.00351548353634 -0.0253530090753 0
0.0116463207293 -0.0270966817836 0
0.00828090407966 -0.0269817656418 0
-0.00625140457204 -0.0272367158608 0
-0.000266460764031 -0.0268546997285 0
-0.02208744087 -0.0352636407059 0
0.0220849037904 -0.0352557930809 0
0.0141425491491 -0.0188794678162 0
-0.0141405342278 -0.0188939545783 0
-0.0127092914561 -0.029034945002 0
0.00334540640177 -0.00994941974476 0
-0.0176155002582 -0.0318111979924 0
0.0176938727446 -0.0319703067933 0
-0.00418522980264 -0.027382038486 0
0.00169513529267 -0.0272474123151 0
0.000755671666111 -0.0131214019809 0
-0.00280838288022 -0.0135985994823 0
-0.0103002326656 -0.0287719601437 0
-0.00693465905575 -0.0142418120887 0
0.00526019706931 -0.0280014143234 0
0.00578600279217 -0.0115943385974 0
0.0103831252602 -0.0292207980949 0
0.014335544924 -0.0306682345363 0
-0.0202069944866 -0.0345114424131 0
0.0202038831566 -0.0345049274769 0
0.00479722813929 -0.0161847191051 0
0.00695705648582 -0.0288716690364 0
-0.01508581865 -0.0312678209573 0
0.00993588305345 -0.0200983903556 0
-0.000611505476413 -0.0211755277117 0
-0.00579454891053 -0.0215134949204 0
-0.00713126319681 -0.00909493644724 0
0.00693964334696 -0.00882860563867 0
0.00122263084773 -0.00751259461479 0
-0.00246776012319 -0.00723201827129 0
-0.000411068338981 -0.00774743021771 0
-0.00814421543101 -0.0293959892788 0
-0.0016811548412 -0.0287722125335 0
-0.0144396819546 -0.0231087198381 0
0.0142797583063 -0.0229580874905 0
0.00323512295874 -0.0289778184211 0
-0.0206220741764 -0.0303182676941 0
0.0206226864828 -0.0303097485798 0
0.0125656494332 -0.0309300540487 0
-0.0110395691513 -0.0210994883443 0
-0.00629716786213 -0.0103867129391 0
-0.00327313957872 -0.00668557823717 0
0.000771639863523 -0.0288269548388 0
-0.00532357325741 -0.0292892509469 0
-0.00331104334886 -0.0295506938247 0
0.0163452258567 -0.0324256280667 0
0.00259025758481 -0.0202248445947 0
-0.00765824225483 -0.021052280486 0
-0.00234850132271 -0.0201612449961 0
-0.0118635030159 -0.030912719102 0
0.00944758274426 -0.0244330176772 0
0.00948114251736 -0.0304140280416 0
-0.0169991255212 -0.033704030182 0
-0.00114036923116 -0.00643540407019 0
0.00404071775006 -0.0220862030241 0
0.00694050350139 -0.0223073831803 0
0.0113076120257 -0.0128982277474 0
-0.0113211992593 -0.0129057395887 0
-0.00707747551402 -0.0304287786563 0
-0.00946797609869 -0.0308770494421 0
-0.000708431679227 -0.0299182953279 0
0.018227699494 -0.0247248976869 0
-0.0182254941635 -0.0247330739696 0
0.00439589532501 -0.0301462505819 0
-0.014057978255 -0.0323484378815 0
0.00665058958103 -0.010635345916 0
0.00833604775133 -0.030518787555 0
0.00553216427935 -0.0141847844813 0
0.00228262830203 -0.0299596752 0
-0.0192319100543 -0.0350373304989 0
0.019240725296 -0.0353100459768 0
-0.023966831507 -0.038487853833 0
0.0239636244239 -0.0384794721729 0
0.0119655005985 -0.0244776340082 0
0.0126991226795 -0.0224440434738 0
0.00219084087254 -0.0238133999498 0
0.000262212933186 -0.0179329752474 0
-0.00422341269348 -0.0178491954576 0
0.00288644978954 -0.0117217439423 0
-0.00923403534652 -0.0247730182448 0
0.00283563432171 -0.00613627856774 0
-0.00323456642645 -0.0239685825785 0
-0.0223575467854 -0.0375451968388 0
0.0223540659904 -0.0375379475498 0
0.000388416208621 -0.00679259162563 0
-0.0163209582214 -0.0275490991886 0
0.0163139375284 -0.0275398305185 0
-0.012459418318 -0.0257069869471 0
-0.00437766264312 -0.0301955915708 0
-0.00139497895079 -0.0111041504404 0
0.00608236365344 -0.0305026976644 0
-0.00478703382354 -0.0118497994551 0
0.0157737213238 -0.033569965489 0
0.00159630917997 -0.00602592723439 0
-0.0165630327166 -0.0243309242142 0
0.0165683653432 -0.0243224583979 0
0.0142347031743 -0.0327805577376 0
0.0115639503062 -0.0317224209066 0
-0.0109484510659 -0.0269211114316 0
-0.0108338206749 -0.0315129064811 0
0.0178637673116 -0.0345696636774 0
0.00772357072851 -0.0170485109016 0
-0.00831449356523 -0.0187351060118 0
-0.00490312292564 -0.025342972119 0
0.00076153019921 -0.0251217559035 0
-0.0106077505608 -0.0146943688618 0
0.0106192398305 -0.0146709507341 0
0.00693759075 -0.0257516029132 0
0.00490065969605 -0.0197876322108 0
-0.0202304117721 -0.0323964670478 0
0.0202280235788 -0.0323895651541 0
0.0102389981923 -0.023385459378 0
0.00160543666063 -0.0120472948181 0
-0.00365761101265 -0.0122183813909 0
0.0084207114822 -0.0155009436972 0
-0.000281851404515 -0.012398051883 0
0.00461773733539 -0.0245479153799 0
-0.00239594675769 -0.016162284956 0
-0.015968316729 -0.0302304347275 0
0.0157148962928 -0.0193747542764 0
-0.0157170919291 -0.0193817081206 0
-0.0184620124059 -0.0311921310027 0
0.0184566109956 -0.0311013616647 0
-0.00709825143403 -0.0263881917963 0
-0.00115554883203 -0.0257463085755 0
-0.0223999674417 -0.033826186293 0
0.0223990715553 -0.0338176525547 0
-0.00249880146217 -0.0303492948941 0
-0.0131153648714 -0.0230749807969 0
0.00135536987021 -0.0185730637658 0
-0.00901721526777 -0.0166603124147 0
0.00262920197739 -0.00457242354751 0
0.00594956032397 -0.0264415335737 0
-0.00250949499873 -0.0277205105465 0
-0.0156061571889 -0.0332884741302 0
-0.00320647678013 -0.0186592832849 0
-0.00632101711582 -0.0307102591948 0
-4.85524606602e-05 -0.0303128005074 0
0.00156246899479 -0.0302099522578 0
-0.0208221091239 -0.0364324985213 0
0.0208186492581 -0.036425632125 0
-0.0132921112663 -0.0325851045198 0
0.0015657194255 -0.00426872197142 0
0.0071793739092 -0.0308100584708 0
-0.0181793060954 -0.0348654165804 0
0.0104142721155 -0.0316113993793 0
-0.00703569793675 -0.0221732152382 0
0.0159376322603 -0.0294725584995 0
-0.00163600599965 -0.021660265816 0
-0.00346545245536 -0.00489685569179 0
-0.00900634661542 -0.0276550412521 0
0.00259435680709 -0.0266769562544 0
0.00514637973295 -0.0306820184246 0
0.00413243792472 -0.00571621500407 0
-5.14373529277e-05 -0.0234422373009 0
-0.00554688857695 -0.0237381031362 0
-0.00435253823879 -0.00487098431356 0
0.00433627410924 -0.00486230559074 0
-0.0134809471763 -0.02827655527 0
0.0131210042144 -0.0278289506401 0
0.00624810258216 -0.0186765030864 0
-0.00252318975234 -0.00445149171212 0
0.00428508676416 -0.027362305522 0
-0.00327136148935 -0.0268080160683 0
0.00802256276079 -0.0236963955318 0
-0.00630442419917 -0.015515037656 0
0.0113161094335 -0.0287558883636 0
0.00200324188762 -0.0163442973244 0
-0.0184421314881 -0.0271918078186 0
0.0184420318105 -0.0271821657457 0
-0.00223234735912 -0.00924460462929 0
0.00930275794531 -0.026730389293 0
-0.00835195943746 -0.031191509542 0
-0.0137009739301 -0.0200409919031 0
-0.00186467387321 -0.0302887712192 0
0.0136971309827 -0.0200229731297 0
0.0200830075321 -0.0276750652213 0
-0.0200817884651 -0.0276827590329 0
0.00768948238765 -0.0281165406626 0
0.0150412838658 -0.0299530252891 0
0.0131127355877 -0.0301496166785 0
-0.00114467912346 -0.00402551680472 0
0.00335473264063 -0.0306258224913 0
0.00456617651299 -0.010389174912 0
2.08954817447e-07 -0.00353426181719 0
0.0144725809311 -0.024945896855 0
0.0037496117165 -0.0157798894558 0
-0.00790272882518 -0.0119938915659 0
-0.00805804298101 -0.00790464647901 0
0.00803817970704 -0.00790059986711 0
-0.00170114487957 -0.0041633556244 0
-0.00996654554124 -0.0208865102633 0
-0.0233725249789 -0.0385028096792 0
0.0233690450896 -0.0384950002758 0
-0.023550119895 -0.0363689612433 0
0.0235480184461 -0.0363602511946 0
-0.00047319770888 -0.00402809260085 0
-0.0117623434353 -0.0258758901385 0
-0.00533229263423 -0.0102794937935 0
-0.00510354634624 -0.0176664775347 0
-0.000619105473134 -0.0174268682126 0
0.000450657537481 -0.00413818850531 0
0.0104835944519 -0.0189083042752 0
-0.016398658842 -0.0259395803431 0
0.0129821210306 -0.0329673476189 0
0.0165150058323 -0.0259848529538 0
0.00864656613399 -0.0195297927749 0
0.00324439192497 -0.022398607238 0
0.00902652220699 -0.0320347456852 0
0.000141461103126 -0.0211417967698 0
-0.0049666831581 -0.0213525128571 0
0.0166865181214 -0.0343382861534 0
-0.0211404780599 -0.0348224141629 0
0.0211374187786 -0.0348154114754 0
-0.00506014840856 -0.0309664755565 0
-0.00377672617388 -0.0308785999691 0
0.00580423223241 -0.0210889526796 0
-0.021355014397 -0.0332284407219 0
0.0213536483573 -0.0332201234657 0
-0.0119783945507 -0.015152685948 0
0.0119766083762 -0.0151381548819 0
0.000769842890779 -0.0314881671092 0
0.00152107027297 -0.0248611408929 0
-0.0116770694322 -0.0323422530393 0
-0.0248562779215 -0.0398228881475 0
0.0248527819733 -0.0398141000953 0
0.00311077398116 -0.0184978132744 0
-0.00406053302692 -0.0249427462658 0
0.015133394648 -0.0340070691674 0
-0.0150952492481 -0.0265601570323 0
0.00436239463365 -0.0131700741537 0
-0.019086137888 -0.033273726113 0
0.010213811979 -0.0272154491291 0
0.0189067245771 -0.0329590291132 0
-0.0103324402764 -0.0322701591546 0
0.00186111891449 -0.0211092166614 0
0.00865580305978 -0.0291511252547 0
-0.00314855082201 -0.0210126576253 0
0.000798785039144 -0.003874319051 0
-0.00881750662359 -0.022108359203 0
-0.01638935254 -0.0294050995993 0
0.00892917757307 -0.0133999984978 0
0.0188777348533 -0.0359949285321 0
-0.00670847792493 -0.0237500176829 0
-0.00111342884944 -0.0232938622921 0
-0.00635299075737 -0.0191050492015 0
-0.0165860022338 -0.0347489072085 0
-0.00560024968926 -0.0275543425544 0
0.000366244049853 -0.0272217965403 0
-0.00150937709957 -0.0186802193515 0
-0.0120338221448 -0.0293641852878 0
-0.00309631399129 -0.0307061247267 0
-0.00240942992883 -0.0229037350939 0
-0.0218329600257 -0.0318725987364 0
0.0218331588606 -0.0318642618132 0
0.00612666467464 -0.0285026846832 0
0.00232199407076 -0.0124832809264 0
0.00347072873297 -0.00420506416673 0
-0.011096988025 -0.0238547718505 0
-0.0151719215896 -0.0340759291059 0
-0.0126521882843 -0.020658557117 0
-0.014913623512 -0.0292110966366 0
-0.00397327691897 -0.0147909954451 0
-0.00811239653076 -0.0235851490504 0
-0.0129758263087 -0.0246067990219 0
-0.0032499481461 -0.00394877485157 0
-0.00905137757779 -0.0321711534218 0
-0.00786552368005 -0.0319264168031 0
-0.00130466763613 -0.0312558046481 0
0.00756028594613 -0.0249067981353 0
-0.0196195537863 -0.0299343848995 0
0.0196200729853 -0.0299254264141 0
0.0139862211603 -0.0160240819465 0
-0.0139963149706 -0.0160281310001 0
0.0125169916605 -0.0204019202372 0
-7.15332031053e-05 -0.0150996985381 0
0.0038939919912 -0.0314485586773 0
-0.0204424066419 -0.0369986149061 0
0.0204088631576 -0.0369895137626 0
-0.00734906373789 -0.0135230006555 0
-0.0125477923987 -0.0327216670497 0
0.00287898765662 -0.0314137797663 0
0.0171228636856 -0.0326231698054 0
-0.00732198492122 -0.0284536613472 0
-0.00123504579086 -0.0276509761482 0
0.00785405638291 -0.0318276423585 0
-0.0219351540822 -0.0380684075705 0
0.0219314364049 -0.0380614593103 0
0.00919061292144 -0.02831112871 0
0.0113119711981 -0.0215401967427 0
-0.00574974743961 -0.0310539523694 0
0.001994237247 -0.00907494624722 0
0.00479415013144 -0.00859039674482 0
0.0104896362007 -0.0255979245413 0
0.0067150742259 -0.0317406141238 0
-0.0031467916581 -0.00783382233292 0
0.0139678530793 -0.0276307239829 0
-0.00639702148914 -0.0289975379332 0
-0.000217445506676 -0.0285927499852 0
-0.0174296529669 -0.0329123768574 0
-0.00181508247142 -0.0268994945028 0
-0.0141133882922 -0.0302952726161 0
0.0130153391146 -0.0248962994591 0
0.000272633670677 -0.0105210815173 0
0.0117340795337 -0.0176122930447 0
0.0138179473129 -0.0335499043931 0
-0.000928863110234 -0.0125377080987 0
0.00484985245574 -0.0228705923454 0
-0.00445053126905 -0.0128266659542 0
-0.00829386839856 -0.0276676037342 0
0.0122626593064 -0.0330111276857 0
0.0165729084054 -0.029365267687 0
-0.0118013643246 -0.0177587696843 0
0.00087643865097 -0.0106732852938 0
0.00975641725127 -0.0322087435497 0
-0.000863066049424 -0.00757091374968 0
0.0193925832622 -0.0256180234081 0
-0.0193913070161 -0.0256244542603 0
0.00362005585731 -0.0273671713989 0
0.00653274080307 -0.0236576620526 0
-0.0100742536493 -0.0301121425979 0
0.00652018786375 -0.0161782350577 0
-0.00607310050917 -0.00869627301186 0
-0.0177863229523 -0.0353865501402 0
-0.00158450024928 -0.00315226847199 0
0.00133908116298 -0.0286751686645 0
-0.00465924775935 -0.0288838312125 0
-0.0038047728823 -0.0288002797927 0
-0.0140178291363 -0.033504372454 0
-0.00956483038369 -0.0270744809792 0
-0.0212541219837 -0.0361871453715 0
-0.0130964238956 -0.0308350153918 0
0.0212507339825 -0.0361802588668 0
0.0112388915182 -0.0250025135057 0
-0.00681030624593 -0.0318603895374 0
-0.000472942907107 -0.0311093682465 0
0.00477168704741 -0.02869511586 0
-0.0113569226705 -0.020084453879 0
-0.00196511541194 -0.0101113862332 0
0.00397660933033 -0.0193485690979 0
0.008457890303 -0.0227741967718 0
0.00909158230698 -0.0220757599527 0
0.00660067088403 -0.0300945964375 0
0.00259177257417 -0.0284705470101 0
-0.011069740033 -0.0291657487345 0
0.0181856346917 -0.0338486384051 0
-0.00845761139066 -0.0172690594387 0
0.00192873853555 -0.031340978486 0
-0.00863559893591 -0.0144993268536 0
0.0016529418559 -0.003202767527 0
-0.0159212750712 -0.0315503433598 0
-0.0199591129056 -0.0352458336708 0
0.0196916835808 -0.0349374799258 0
0.00126835266632 -0.0160024201809 0
-0.024366891073 -0.0400490884315 0
0.0243631004195 -0.0400408653347 0
0.00474223910967 -0.0314443215576 0
-0.0189691156529 -0.0360281035987 0
-0.0162428356336 -0.022263783113 0
0.0162439799831 -0.0222533422894 0
0.00617065981182 -0.0138587049566 0
0.00761072994417 -0.0300205605909 0
0.0121143235833 -0.0289433099843 0
-0.0146707056282 -0.0320601669481 0
0.00080128880109 -0.0195824095809 0
-0.000434249316875 -0.00251436009114 0
0.0052463160665 -0.0261345871265 0
-0.00288346472641 -0.0252013739302 0
-0.00400715912467 -0.0197904420505 0
-0.0063421734867 -0.0253527358614 0
-0.000588755356811 -0.0249878779427 0
-0.024462743446 -0.0382719062762 0
0.0244599082173 -0.0382629575034 0
-0.00662377365957 -0.0176327752398 0
0.0117684208607 -0.0305494952285 0
-0.0195877629694 -0.032527826985 0
-0.00445711013163 -0.0316632255635 0
0.019577249842 -0.0325049388959 0
0.0148224503049 -0.032320965661 0
0.0010851328582 -0.0268663917086 0
-0.00538193942435 -0.0116580447849 0
-0.00321771126847 -0.0162607967409 0
0.00423001082617 -0.0085912719371 0
-0.00478824855534 -0.0271142453549 0
-0.0230096475202 -0.0371817956144 0
0.0230066200291 -0.0371738538843 0
0.00857180933774 -0.017206729566 0
0.00899841049972 -0.0106793778876 0
-0.00904805547208 -0.0107491148503 0
0.0154473117834 -0.0317191932687 0
0.000514117696422 -0.0231404862659 0
-0.00488670330117 -0.0233581538316 0
0.00291046994311 -0.00739115656716 0
0.0026037265183 -0.00919797892567 0
-0.0134588650772 -0.0162956288399 0
0.0134541623482 -0.0162869681191 0
-0.0137075858728 -0.0272070300755 0
-0.000906060643018 -0.00262566493576 0
0.0174815793036 -0.0353975816134 0
0.0068234272828 -0.0122689934146 0
0.00562556955353 -0.0315270102279 0
-0.0175613197375 -0.0288675093431 0
-0.0112603348883 -0.030832593745 0
0.0175736620124 -0.0288789637869 0
0.0107378377786 -0.0225691805333 0
-0.00229114242416 -0.0316087272254 0
0.00292283112571 -0.023925169696 0
0.00132573155526 -0.00302009238378 0
0.0110596116389 -0.0326430185564 0
0.00860230670973 -0.0143207706721 0
0.0100025894883 -0.0298321877663 0
0.00723344940881 -0.0208665669664 0
0.0152322690492 -0.0274420500614 0
0.000985054695501 -0.00318873232269 0
-0.0100054193351 -0.0248011488464 0
-0.0228696616999 -0.039112248467 0
0.0055824915691 -0.0162365589334 0
0.0228658027257 -0.0391049756305 0
0.00382472392993 -0.0142650163569 0
-0.00879991990184 -0.0293483931 0
-0.0174201207567 -0.0301893862806 0
0.0134101702488 -0.0318744487219 0