# vtk DataFile Version 2.0
Generated with Solid Solver
ASCII
DATASET UNSTRUCTURED_GRID
POINTS 856 float 
0.0 3.5 0.0
1.6 3.5 0.0
1.6 4.0 0.0
0.0 4.0 0.0
0.0695652173912 3.5 0.0
0.139130434782 3.5 0.0
0.208695652174 3.5 0.0
0.278260869565 3.5 0.0
0.347826086956 3.5 0.0
0.417391304347 3.5 0.0
0.486956521738 3.5 0.0
0.556521739129 3.5 0.0
0.62608695652 3.5 0.0
0.695652173911 3.5 0.0
0.765217391302 3.5 0.0
0.834782608694 3.5 0.0
0.904347826085 3.5 0.0
0.973913043477 3.5 0.0
1.04347826087 3.5 0.0
1.11304347826 3.5 0.0
1.18260869565 3.5 0.0
1.25217391304 3.5 0.0
1.32173913043 3.5 0.0
1.39130434783 3.5 0.0
1.46086956522 3.5 0.0
1.53043478261 3.5 0.0
1.6 3.56430812594 0.0
1.6 3.62270835268 0.0
1.6 3.6757434324 0.0
1.6 3.7239062376 0.0
1.6 3.76764438351 0.0
1.6 3.80736436404 0.0
1.6 3.84343531219 0.0
1.6 3.87619247117 0.0
1.6 3.90594026707 0.0
1.6 3.93295517284 0.0
1.6 3.95748825478 0.0
1.6 3.97976750982 0.0
1.58000000587 4.0 0.0
1.55999996633 4.0 0.0
1.54000002214 4.0 0.0
1.51999997198 4.0 0.0
1.50000000455 4.0 0.0
1.48000000216 4.0 0.0
1.45999997931 4.0 0.0
1.44000002484 4.0 0.0
1.41999997044 4.0 0.0
1.40000002096 4.0 0.0
1.37999999963 4.0 0.0
1.35999999626 4.0 0.0
1.34000002179 4.0 0.0
1.31999997343 4.0 0.0
1.3000000318 4.0 0.0
1.27999998783 4.0 0.0
1.26000000202 4.0 0.0
1.24000001295 4.0 0.0
1.21999998074 4.0 0.0
1.20000003685 4.0 0.0
1.17999998163 4.0 0.0
1.16000001473 4.0 0.0
1.14000000469 4.0 0.0
1.11999999139 4.0 0.0
1.10000003625 4.0 0.0
1.07999997877 4.0 0.0
1.06000002802 4.0 0.0
1.04000000338 4.0 0.0
1.02000000764 4.0 0.0
1.00000002986 4.0 0.0
0.979999980237 4.0 0.0
0.960000035522 4.0 0.0
0.939999990881 4.0 0.0
0.920000014619 4.0 0.0
0.900000017903 4.0 0.0
0.879999986222 4.0 0.0
0.860000037278 4.0 0.0
0.839999982352 4.0 0.0
0.820000022783 4.0 0.0
0.800000000002 4.0 0.0
0.779999977222 4.0 0.0
0.760000017652 4.0 0.0
0.739999962726 4.0 0.0
0.720000013782 4.0 0.0
0.699999982101 4.0 0.0
0.679999985385 4.0 0.0
0.660000009123 4.0 0.0
0.639999964482 4.0 0.0
0.620000019766 4.0 0.0
0.599999970141 4.0 0.0
0.57999999236 4.0 0.0
0.559999996622 4.0 0.0
0.539999971983 4.0 0.0
0.520000021235 4.0 0.0
0.499999963756 4.0 0.0
0.480000008612 4.0 0.0
0.459999995315 4.0 0.0
0.439999985272 4.0 0.0
0.420000018371 4.0 0.0
0.39999996315 4.0 0.0
0.380000019261 4.0 0.0
0.359999987052 4.0 0.0
0.339999997986 4.0 0.0
0.320000012172 4.0 0.0
0.299999968206 4.0 0.0
0.280000026575 4.0 0.0
0.259999978213 4.0 0.0
0.240000003742 4.0 0.0
0.220000000371 4.0 0.0
0.199999979041 4.0 0.0
0.180000029557 4.0 0.0
0.159999975162 4.0 0.0
0.140000020694 4.0 0.0
0.119999997846 4.0 0.0
0.0999999954514 4.0 0.0
0.0800000280232 4.0 0.0
0.0599999778571 4.0 0.0
0.0400000336732 4.0 0.0
0.0199999941324 4.0 0.0
0.0 3.97976750982 0.0
0.0 3.95748825478 0.0
0.0 3.93295517284 0.0
0.0 3.90594026707 0.0
0.0 3.87619247117 0.0
0.0 3.84343531219 0.0
0.0 3.80736436404 0.0
0.0 3.76764438351 0.0
0.0 3.7239062376 0.0
0.0 3.6757434324 0.0
0.0 3.62270835268 0.0
0.0 3.56430812594 0.0
0.249757905714 3.75212552678 0.0
1.35000000902 3.74954526597 0.0
0.488714190926 3.75947467509 0.0
0.727445026698 3.75983525744 0.0
0.962900270309 3.76055270856 0.0
1.17161197633 3.81755162829 0.0
0.130754031542 3.86878251069 0.0
1.46924596846 3.86878251069 0.0
0.369913852535 3.84868154079 0.0
0.603236233099 3.84763103091 0.0
0.843402107212 3.84736931152 0.0
1.05041705507 3.86611282467 0.0
0.250539323282 3.87785527135 0.0
1.34882231626 3.87787871523 0.0
0.468661896861 3.89189320321 0.0
0.704258117309 3.89639128976 0.0
0.94963922804 3.89654080835 0.0
1.25000000748 3.89875296068 0.0
1.12879020517 3.91059303421 0.0
0.548928478218 3.91905583534 0.0
0.7889268651 3.91906062813 0.0
0.0712526194949 3.93011432704 0.0
1.52874738051 3.93011432704 0.0
1.4740071133 3.74293106904 0.0
0.125992886699 3.74293106904 0.0
0.329956761073 3.92118145982 0.0
1.09412206522 3.66725831207 0.0
0.190000004299 3.92542384899 0.0
1.41098423528 3.92728100222 0.0
0.629999992124 3.92414139091 0.0
0.87000001175 3.92414140592 0.0
0.853391941071 3.71944243214 0.0
0.610032822379 3.72536074396 0.0
0.41090315692 3.92892991009 0.0
0.370435019193 3.7251305208 0.0
1.01000001875 3.93130199947 0.0
1.22823348571 3.68694249365 0.0
1.18894423177 3.93487447818 0.0
1.31063576122 3.93502724255 0.0
0.129927636183 3.94112156482 0.0
1.47007236382 3.94112156482 0.0
1.07646504896 3.76194504855 0.0
1.07000000339 3.94017719684 0.0
0.270000002394 3.93875928556 0.0
1.26759839792 3.80243333593 0.0
0.770332946246 3.83880063275 0.0
0.530342720064 3.83880306325 0.0
0.189898092614 3.63474333735 0.0
1.4101772205 3.6313147556 0.0
0.942883893479 3.62966700486 0.0
0.510631148905 3.62429064243 0.0
0.754670889573 3.63369080225 0.0
0.489999986184 3.94463854908 0.0
0.732500655853 3.9452729887 0.0
0.193627936713 3.81528931126 0.0
1.40183871842 3.81461096917 0.0
0.928721275957 3.94715071018 0.0
0.0604617896557 3.86281267064 0.0
1.53953821034 3.86281267065 0.0
1.25036152032 3.94913766834 0.0
0.30096552553 3.81141484704 0.0
0.297089357677 3.66359682597 0.0
0.394212311705 3.61316974741 0.0
0.831051681923 3.94633984116 0.0
0.592085081305 3.94901138542 0.0
0.669405291514 3.95495209798 0.0
1.3611855791 3.94637621082 0.0
0.928496698914 3.82436133158 0.0
0.444093171593 3.8271987226 0.0
0.683378885111 3.8234871366 0.0
0.372430737197 3.95235208784 0.0
1.19348789949 3.87019408468 0.0
1.15124363553 3.95467023547 0.0
0.229287653728 3.96038323295 0.0
0.646635519079 3.61231195482 0.0
0.986819459779 3.84973028271 0.0
1.11214815433 3.84770266014 0.0
1.50610225987 3.6604664246 0.0
0.0938977401332 3.6604664246 0.0
0.531976760298 3.96138656711 0.0
0.451361041931 3.96112773652 0.0
0.771976835888 3.96138886125 0.0
1.53311213884 3.79435404356 0.0
0.066887861162 3.79435404356 0.0
0.970836553066 3.9620233382 0.0
0.311702426505 3.96111572975 0.0
1.31698094247 3.6658628839 0.0
1.11177843379 3.95948388532 0.0
1.15003411964 3.72957279566 0.0
0.890058924798 3.96133576813 0.0
0.169108880648 3.96040269401 0.0
1.42850737314 3.96465656678 0.0
0.0426347993992 3.9610175717 0.0
1.5573652006 3.9610175717 0.0
1.28993057938 3.85776473604 0.0
1.34652710411 3.82072629166 0.0
0.897316840472 3.87585124602 0.0
0.814484972147 3.79171515708 0.0
0.573290986674 3.7879873938 0.0
1.02164717476 3.69631051635 0.0
0.41798215839 3.87594988344 0.0
1.18469655214 3.6045863568 0.0
0.657426542805 3.87734841349 0.0
0.0893439701605 3.9657484063 0.0
1.51065602984 3.9657484063 0.0
0.850202761783 3.61862953305 0.0
0.185775988195 3.86980628439 0.0
1.41422401181 3.86980628439 0.0
0.305957202498 3.87340573583 0.0
0.629999992124 3.96272981278 0.0
0.686026569054 3.68766751472 0.0
1.03220081924 3.96436031967 0.0
0.445441337222 3.69456289967 0.0
1.33308537187 3.96770341358 0.0
1.0249206042 3.60512275769 0.0
0.128645746764 3.81165411571 0.0
1.47135425324 3.81165411571 0.0
1.29077706219 3.96625078806 0.0
1.21302440104 3.96491551313 0.0
0.373320303365 3.89968789902 0.0
0.409457647309 3.96502881891 0.0
1.39076199588 3.96614348387 0.0
1.2156032112 3.76624353786 0.0
0.383301616321 3.78976397621 0.0
0.593246012246 3.8948346816 0.0
0.833004203108 3.89475034107 0.0
0.187583903859 3.70688411961 0.0
1.41241609614 3.70688411961 0.0
1.08573330585 3.89673930733 0.0
1.04303343403 3.81530385578 0.0
0.103644791029 3.90516202075 0.0
1.49635520897 3.90516202075 0.0
1.23586605501 3.85112068621 0.0
0.921814270996 3.70213058021 0.0
0.532219762185 3.7029333087 0.0
1.28217045716 3.7375098981 0.0
0.779621693208 3.70806977531 0.0
0.998890529268 3.88397615296 0.0
0.659406618131 3.76469373474 0.0
0.230043799244 3.91599372373 0.0
1.53690667654 3.72637971331 0.0
0.0630933234627 3.72637971331 0.0
0.153148105836 3.90639761309 0.0
1.4478092366 3.90500627713 0.0
0.512139854501 3.90538519137 0.0
0.750930702019 3.90340708 0.0
0.0409150717909 3.90046251393 0.0
1.55908492821 3.90046251393 0.0
0.702096631597 3.96656725638 0.0
0.246204062466 3.82734823738 0.0
0.872012730916 3.80079945556 0.0
0.313419524246 3.75328100976 0.0
1.26305184675 3.57725747237 0.0
1.04341944162 3.90846795586 0.0
0.697725469476 3.93030230037 0.0
0.27003033309 3.96477332623 0.0
0.632456188669 3.80120134001 0.0
0.55988813035 3.96676596088 0.0
0.798125231733 3.9668778541 0.0
0.861599835739 3.96514225679 0.0
0.130196681328 3.96566148827 0.0
1.46980331867 3.96566148827 0.0
0.337465698618 3.96873835045 0.0
1.10690030388 3.57445060302 0.0
1.07038768144 3.96631210642 0.0
0.201908835349 3.96783542832 0.0
1.17640357301 3.96795841043 0.0
0.482502283815 3.8454083814 0.0
1.37723451734 3.90442225885 0.0
0.722497886517 3.84543272537 0.0
0.254749007352 3.57960328731 0.0
0.449206209982 3.91785378051 0.0
0.907803563184 3.91575967116 0.0
0.997592319531 3.96832081731 0.0
1.3597087328 3.59165409162 0.0
0.797785363131 3.87112617582 0.0
0.557788209884 3.87112741711 0.0
0.133223775006 3.57024633267 0.0
1.46673023696 3.57019175074 0.0
0.296361477075 3.90524448543 0.0
1.29555045611 3.90092076583 0.0
1.11951450862 3.79592056714 0.0
0.341558640376 3.57546927501 0.0
0.974255514016 3.92370320024 0.0
0.664786082443 3.91707165091 0.0
1.1442561544 3.86460464827 0.0
0.430695849932 3.74774845865 0.0
1.22439218721 3.92431164104 0.0
0.917330800791 3.76752811157 0.0
0.0995806821614 3.83759752714 0.0
1.50041931784 3.83759752714 0.0
0.586492545959 3.6571718064 0.0
1.16809690663 3.90376349956 0.0
0.490525946651 3.9687439861 0.0
0.170108846494 3.77025381333 0.0
0.726723612771 3.96611364881 0.0
1.42998397347 3.77014833166 0.0
1.55978981314 3.82099569701 0.0
0.0402101868575 3.82099569701 0.0
1.10043652243 3.92805072974 0.0
1.34111814411 3.91924529479 0.0
1.27430066613 3.93505265881 0.0
0.56431092584 3.57086686051 0.0
0.930516510487 3.96969091611 0.0
1.17713743504 3.67180033503 0.0
0.801256410508 3.5635758738 0.0
1.37979186382 3.84566323689 0.0
1.02277822921 3.7577258162 0.0
0.252009847995 3.68167957306 0.0
0.0497138210057 3.58866012032 0.0
1.55028617899 3.58866012032 0.0
0.466046622144 3.57331739513 0.0
0.343019074867 3.81481221655 0.0
0.0645235269233 3.96909610548 0.0
1.53547647308 3.96909610548 0.0
0.0310141903995 3.92955737583 0.0
[...]
POINT_DATA 856
VECTORS Displacement float
0.0 0.0 0
0.0 0.0 0
0.0177297968212 -0.0284704950279 0
-0.0177326378099 -0.028476863081 0
0.0 0.0 0
0.0 0.0 0
0.0 0.0 0
0.0 0.0 0
0.0 0.0 0
0.0 0.0 0
0.0 0.0 0
0.0 0.0 0
0.0 0.0 0
0.0 0.0 0
0.0 0.0 0
0.0 0.0 0
0.0 0.0 0
0.0 0.0 0
0.0 0.0 0
0.0 0.0 0
0.0 0.0 0
0.0 0.0 0
0.0 0.0 0
0.0 0.0 0
0.0 0.0 0
0.0 0.0 0
0.00550788363486 -0.0055348930886 0
0.00834264539805 -0.00910682509724 0
0.0104668950317 -0.0119865256096 0
0.0119629708861 -0.0144557194105 0
0.013124218442 -0.0166604105854 0
0.0140611622702 -0.018641555368 0
0.0148145548304 -0.0204494059501 0
0.0154673411138 -0.022097626734 0
0.0160224809877 -0.0236072248206 0
0.0165140165682 -0.0249930620439 0
0.016956120415 -0.0262607106611 0
0.0173600491018 -0.0274171315354 0
0.0172397233477 -0.0281039018253 0
0.016747857833 -0.0277336547922 0
0.0162517696198 -0.0273621496219 0
0.0157493606239 -0.0269914024013 0
0.0152415595651 -0.0266254105715 0
0.014729173765 -0.0262675785728 0
0.0142108113268 -0.0259195326168 0
0.0136915724622 -0.0255850200852 0
0.0131685162548 -0.0252652122755 0
0.0126479194102 -0.0249608432054 0
0.0121263796718 -0.0246731284031 0
0.0116090099313 -0.0244025284129 0
0.0110934129046 -0.0241501637746 0
0.0105845663883 -0.0239178846801 0
0.0100849717355 -0.0236994975626 0
0.00958844327682 -0.0235015740293 0
0.0091022423468 -0.0233170840483 0
0.00862664343787 -0.0231473861719 0
0.00815824212759 -0.0229924629865 0
0.0076957360818 -0.02285291131 0
0.00724485399784 -0.0227233247072 0
0.00680051349454 -0.022610240585 0
0.00636847850246 -0.0225060807354 0
0.0059466616087 -0.0224121096484 0
0.00553082328548 -0.0223278968376 0
0.00512346388972 -0.0222494882345 0
0.00472285511137 -0.02218277741 0
0.00433050341339 -0.0221199317906 0
0.00394392216955 -0.0220681550022 0
0.00356482038162 -0.0220201653582 0
0.00319138519666 -0.0219781534609 0
0.00282199936302 -0.0219429236969 0
0.00245877547337 -0.0219117607486 0
0.00209879061843 -0.0218868547331 0
0.00174347825384 -0.0218650751388 0
0.00139126160161 -0.0218485076403 0
0.00104129074237 -0.0218339798227 0
0.000692963733142 -0.0218245084978 0
0.000345757924819 -0.0218190488497 0
-7.72532694159e-07 -0.0218179169775 0
-0.000347373391225 -0.0218199070613 0
-0.000694412942709 -0.0218253332545 0
-0.00104212593982 -0.0218346471126 0
-0.00139247541632 -0.0218469506938 0
-0.0017450199205 -0.0218645714602 0
-0.00210037709159 -0.0218867857266 0
-0.0024597046426 -0.0219130087916 0
-0.00282303570287 -0.0219420521465 0
-0.00319086361947 -0.0219769655304 0
-0.00356605584493 -0.0220175840398 0
-0.00394644868792 -0.0220657933787 0
-0.00433109507003 -0.0221187799861 0
-0.00472382538189 -0.0221814195063 0
-0.00512308524052 -0.0222480211429 0
-0.00552981471935 -0.0223242322465 0
-0.00594729245936 -0.0224065841643 0
-0.00637151162309 -0.0225037611805 0
-0.00680435590442 -0.0226071245756 0
-0.00724477983674 -0.0227242798242 0
-0.00769548282249 -0.0228507116729 0
-0.00815867536038 -0.0229911327314 0
-0.00862823756658 -0.0231461242001 0
-0.00910566483819 -0.0233159377647 0
-0.00959404912861 -0.0235013816308 0
-0.0100879621265 -0.023701200295 0
-0.010588124879 -0.0239186082839 0
-0.0110978931004 -0.024151147237 0
-0.0116103463621 -0.0244048674149 0
-0.0121297891913 -0.024674060616 0
-0.0126510688188 -0.0249635494186 0
-0.0131714964715 -0.0252685324183 0
-0.0136943488344 -0.0255886398301 0
-0.0142136429337 -0.025923642409 0
-0.0147319618033 -0.0262720533167 0
-0.0152443183592 -0.0266301528428 0
-0.0157521343941 -0.0269963825313 0
-0.0162545757246 -0.0273674272995 0
-0.0167506812217 -0.0277392764487 0
-0.0172425612914 -0.0281098914949 0
-0.0173625087156 -0.0274235028943 0
-0.0169581487583 -0.0262670872459 0
-0.0165154946748 -0.0249994245065 0
-0.0160232924806 -0.023613468772 0
-0.0154674709023 -0.0221034916088 0
-0.0148143056236 -0.020454557049 0
-0.0140606744246 -0.0186456239242 0
-0.0131245120237 -0.0166627483299 0
-0.0119660112989 -0.014456132326 0
-0.0104751511934 -0.0119857017716 0
-0.00835524382228 -0.00910794146555 0
-0.00551796936775 -0.00553855924553 0
-0.00707761590096 -0.0115104844025 0
0.00702352394572 -0.0113783860691 0
-0.00360825070972 -0.0107403322865 0
-0.000800662103519 -0.0105348238839 0
0.00182767313791 -0.0106068095655 0
0.00523560378999 -0.0136307701058 0
-0.0121587401026 -0.0192023835118 0
0.0121569605635 -0.0191984792121 0
-0.00668467668717 -0.0154305873101 0
-0.00282756228292 -0.0146346518559 0
0.000614691277046 -0.0145185462091 0
0.00379215798084 -0.01560307458 0
-0.00955980641247 -0.0179320545726 0
0.00954242424748 -0.0179288290578 0
-0.00539719540217 -0.0170784363855 0
-0.00149004197127 -0.0168507548796 0
0.00234365569089 -0.0169020060502 0
0.00776421381951 -0.0180644545224 0
0.00552060271977 -0.0179878437612 0
-0.00416760304803 -0.0181578105739 0
-0.000177640509354 -0.0179031331524 0
-0.01472496058 -0.0235090938039 0
0.0147232691936 -0.0235038620539 0
0.00942836609942 -0.0125863118774 0
-0.00942702281851 -0.0125959697189 0
-0.00847286097071 -0.0193566300014 0
0.00223027093451 -0.0066329464965 0
-0.0117436668388 -0.0212074653283 0
0.0117959151631 -0.0213135378622 0
-0.00279015320176 -0.018254692324 0
0.00113009019511 -0.0181649415434 0
0.000503781110741 -0.00874760132057 0
-0.00187225525348 -0.00906573298819 0
-0.00686682177704 -0.0191813067625 0
-0.00462310603717 -0.00949454139245 0
0.00350679804621 -0.0186676095489 0
0.00385733519478 -0.00772955906496 0
0.00692208350679 -0.0194805320633 0
0.00955702994934 -0.0204454896908 0
-0.0134713296577 -0.0230076282754 0
0.0134692554377 -0.0230032849846 0
0.00319815209286 -0.0107898127367 0
0.00463803765722 -0.0192477793576 0
-0.0100572124334 -0.0208452139716 0
0.00662392203564 -0.0133989269037 0
-0.000407670317609 -0.0141170184744 0
-0.00386303260702 -0.0143423299469 0
-0.00475417546454 -0.00606329096482 0
0.00462642889798 -0.00588573709245 0
0.000815087231821 -0.00500839640986 0
-0.00164517341546 -0.0048213455142 0
-0.000274045559321 -0.00516495347847 0
-0.005429476954 -0.0195973261859 0
-0.00112076989414 -0.0191814750224 0
-0.00962645463638 -0.0154058132254 0
0.00951983887087 -0.0153053916603 0
0.00215674863916 -0.0193185456141 0
-0.0137480494509 -0.0202121784627 0
0.0137484576552 -0.0202064990532 0
0.00837709962211 -0.0206200360325 0
-0.00735971276756 -0.0140663255629 0
-0.00419811190809 -0.00692447529274 0
-0.00218209305248 -0.00445705215811 0
0.000514426575682 -0.0192179698925 0
-0.00354904883827 -0.0195261672979 0
-0.00220736223257 -0.0197004625498 0
0.0108968172378 -0.0216170853778 0
0.00172683838987 -0.0134832297298 0
-0.00510549483655 -0.0140348536573 0
-0.00156566754847 -0.0134408299974 0
-0.00790900201061 -0.0206084794014 0
0.00629838849617 -0.0162886784514 0
0.00632076167824 -0.0202760186944 0
-0.0113327503475 -0.0224693534547 0
-0.000760246154105 -0.00429026938013 0
0.00269381183337 -0.0147241353494 0
0.00462700233426 -0.0148715887869 0
0.00753840801715 -0.00859881849829 0
-0.00754746617287 -0.00860382639249 0
-0.00471831700934 -0.0202858524375 0
-0.0063119840658 -0.020584699628 0
-0.000472287786152 -0.0199455302186 0
0.0121517996627 -0.0164832651246 0
-0.0121503294424 -0.0164887159797 0
0.00293059688334 -0.0200975003879 0
-0.00937198550337 -0.0215656252543 0
0.00443372638736 -0.0070902306107 0
0.00555736516756 -0.02034585837 0
0.00368810951956 -0.00945652298752 0
0.00152175220136 -0.0199731168 0
-0.0128212733695 -0.0233582203326 0
0.0128271501973 -0.0235400306512 0
-0.0159778876713 -0.025658569222 0
0.0159757496159 -0.0256529814486 0
0.00797700039897 -0.0163184226721 0
0.0084660817863 -0.0149626956492 0
0.0014605605817 -0.0158755999665 0
0.000174808622124 -0.0119553168316 0
-0.00281560846232 -0.0118994636384 0
0.00192429985969 -0.00781449596156 0
-0.00615602356435 -0.0165153454965 0
0.00189042288114 -0.00409085237849 0
-0.00215637761763 -0.0159790550524 0
-0.0149050311903 -0.0250301312259 0
0.0149027106603 -0.0250252983665 0
0.000258944139081 -0.00452839441708 0
-0.0108806388143 -0.0183660661258 0
0.0108759583523 -0.0183598870124 0
-0.00830627887866 -0.017137991298 0
-0.00291844176208 -0.0201303943805 0
-0.00092998596719 -0.00740276696025 0
0.00405490910229 -0.0203351317763 0
-0.00319135588236 -0.00789986630338 0
0.0105158142159 -0.0223799769926 0
0.00106420611998 -0.00401728482293 0
-0.011042021811 -0.0162206161428 0
0.0110455768955 -0.0162149722653 0
0.0094898021162 -0.0218537051584 0
0.00770930020417 -0.0211482806044 0
-0.00729896737725 -0.0179474076211 0
-0.00722254711663 -0.0210086043207 0
0.0119091782077 -0.0230464424516 0
0.00514904715234 -0.0113656739344 0
-0.00554299571015 -0.0124900706745 0
-0.00326874861709 -0.016895314746 0
0.000507686799473 -0.016747837269 0
-0.00707183370721 -0.00979624590787 0
0.00707949322032 -0.00978063382276 0
0.0046250605 -0.0171677352755 0
0.00326710646403 -0.0131917548072 0
-0.0134869411814 -0.0215976446985 0
0.0134853490525 -0.0215930434361 0
0.00682599879483 -0.015590306252 0
0.00107029110709 -0.00803152987877 0
-0.00243840734177 -0.00814558759396 0
0.0056138076548 -0.0103339624648 0
-0.000187900936343 -0.00826536792198 0
0.00307849155693 -0.01636527692 0
-0.00159729783846 -0.0107748566374 0
-0.010645544486 -0.0201536231517 0
0.0104765975285 -0.012916502851 0
-0.0104780612861 -0.0129211387471 0
-0.0123080082706 -0.0207947540018 0
0.0123044073304 -0.0207342411098 0
-0.00473216762269 -0.0175921278642 0
-0.000770365888019 -0.017164205717 0
-0.0149333116278 -0.022550790862 0
0.0149327143702 -0.0225451017031 0
-0.00166586764144 -0.0202328632627 0
-0.00874357658091 -0.0153833205313 0
0.000903579913472 -0.0123820425105 0
-0.00601147684518 -0.0111068749432 0
0.00175280131826 -0.003048282365 0
0.00396637354931 -0.0176276890491 0
-0.00167299666582 -0.0184803403643 0
-0.0104041047926 -0.0221923160868 0
-0.00213765118675 -0.0124395221899 0
-0.00421401141055 -0.0204735061298 0
-3.23683071068e-05 -0.0202085336716 0
0.00104164599653 -0.0201399681719 0
-0.0138814060826 -0.0242883323475 0
0.0138790995054 -0.02428375475 0
-0.00886140751086 -0.0217234030132 0
0.00104381295034 -0.00284581464761 0
0.0047862492728 -0.0205400389805 0
-0.0121195373969 -0.0232436110536 0
0.00694284807702 -0.0210742662528 0
-0.00469046529117 -0.0147821434921 0
0.0106250881735 -0.019648372333 0
-0.00109067066643 -0.0144401772107 0
-0.00231030163691 -0.00326457046119 0
-0.00600423107695 -0.0184366941681 0
0.00172957120473 -0.0177846375029 0
0.00343091982197 -0.0204546789497 0
0.00275495861648 -0.00381081000271 0
-3.42915686185e-05 -0.0156281582006 0
-0.00369792571797 -0.0158254020908 0
-0.00290169215919 -0.00324732287571 0
0.00289084940616 -0.00324153706049 0
-0.00898729811754 -0.0188510368467 0
0.00874733614296 -0.0185526337601 0
0.00416540172144 -0.0124510020576 0
-0.00168212650156 -0.00296766114141 0
0.00285672450944 -0.0182415370146 0
-0.00218090765957 -0.0178720107122 0
0.00534837517386 -0.0157975970212 0
-0.00420294946611 -0.0103433584373 0
0.00754407295564 -0.0191705922424 0
0.00133549459175 -0.0108961982162 0
-0.0122947543254 -0.0181278718791 0
0.0122946878737 -0.0181214438305 0
-0.00148823157275 -0.00616306975286 0
0.00620183863021 -0.0178202595287 0
-0.0055679729583 -0.0207943396947 0
-0.00913398262005 -0.0133606612687 0
-0.00124311591547 -0.0201925141461 0
0.00913142065514 -0.0133486487531 0
0.0133886716881 -0.0184500434809 0
-0.0133878589767 -0.0184551726886 0
0.00512632159176 -0.0187443604418 0
0.0100275225772 -0.019968683526 0
0.00874182372516 -0.0200997444523 0
-0.000763119415638 -0.00268367786981 0
0.00223648842709 -0.0204172149942 0
0.00304411767533 -0.00692611660797 0
1.39303211632e-07 -0.00235617454479 0
0.00964838728737 -0.0166305979033 0
0.00249974114434 -0.0105199263038 0
-0.00526848588346 -0.00799592771059 0
-0.00537202865401 -0.00526976431934 0
0.00535878647136 -0.00526706657807 0
-0.00113409658638 -0.00277557041627 0
-0.00664436369416 -0.0139243401755 0
-0.0155816833193 -0.0256685397861 0
0.0155793633931 -0.0256633335172 0
-0.01570007993 -0.0242459741622 0
0.0156986789641 -0.0242401674631 0
-0.000315465139253 -0.00268539506723 0
-0.00784156229023 -0.0172505934256 0
-0.00355486175615 -0.00685299586236 0
-0.00340236423083 -0.0117776516898 0
-0.000412736982089 -0.0116179121417 0
0.00030043835832 -0.00275879233687 0
0.00698906296791 -0.0126055361835 0
-0.010932439228 -0.0172930535621 0
0.00865474735371 -0.0219782317459 0
0.0110100038882 -0.0173232353025 0
0.00576437742266 -0.0130198618499 0
0.00216292794998 -0.0149324048254 0
0.00601768147133 -0.0213564971234 0
9.43074020843e-05 -0.0140945311798 0
-0.0033111221054 -0.0142350085714 0
0.0111243454143 -0.022892190769 0
-0.0140936520399 -0.0232149427753 0
0.0140916125191 -0.0232102743169 0
-0.00337343227237 -0.0206443170377 0
-0.00251781744926 -0.0205857333127 0
0.00386948815494 -0.0140593017864 0
-0.0142366762647 -0.0221522938146 0
0.0142357655715 -0.0221467489771 0
-0.00798559636715 -0.010101790632 0
0.00798440558416 -0.0100921032546 0
0.000513228593853 -0.0209921114061 0
0.00101404684865 -0.0165740939286 0
-0.0077847129548 -0.0215615020262 0
-0.0165708519477 -0.0265485920983 0
0.0165685213156 -0.0265427333968 0
0.00207384932078 -0.0123318755162 0
-0.00270702201795 -0.0166284975105 0
0.0100889297654 -0.0226713794449 0
-0.0100634994988 -0.0177067713549 0
0.0029082630891 -0.00878004943578 0
-0.0127240919254 -0.0221824840753 0
0.00680920798598 -0.0181436327528 0
0.0126044830514 -0.0219726860755 0
-0.00688829351758 -0.0215134394364 0
0.00124074594299 -0.0140728111076 0
0.00577053537318 -0.0194340835031 0
-0.00209903388134 -0.0140084384169 0
0.000532523359429 -0.00258287936733 0
-0.00587833774906 -0.0147389061354 0
-0.0109262350267 -0.0196033997329 0
0.00595278504871 -0.00893333233186 0
0.0125851565689 -0.0239966190214 0
-0.00447231861662 -0.0158333451219 0
-0.000742285899625 -0.015529241528 0
-0.00423532717158 -0.0127366994677 0
-0.0110573348225 -0.023165938139 0
-0.00373349979284 -0.0183695617029 0
0.000244162699902 -0.0181478643602 0
-0.00100625139971 -0.0124534795677 0
-0.00802254809656 -0.0195761235252 0
-0.00206420932753 -0.0204707498178 0
-0.00160628661922 -0.0152691567293 0
-0.0145553066838 -0.0212483991576 0
0.0145554392404 -0.0212428412088 0
0.00408444311642 -0.0190017897888 0
0.00154799604718 -0.0083221872843 0
0.00231381915532 -0.00280337611116 0
-0.00739799201665 -0.0159031812337 0
-0.0101146143931 -0.0227172860706 0
-0.00843479218952 -0.0137723714113 0
-0.00994241567466 -0.0194740644244 0
-0.00264885127931 -0.00986066363009 0
-0.00540826435384 -0.0157234327003 0
-0.00865055087247 -0.0164045326813 0
-0.0021666320974 -0.00263251656771 0
-0.00603425171852 -0.0214474356146 0
-0.00524368245337 -0.0212842778688 0
-0.000869778424089 -0.0208372030987 0
0.00504019063075 -0.0166045320902 0
-0.0130797025242 -0.0199562565997 0
0.0130800486568 -0.0199502842761 0
0.00932414744022 -0.0106827212977 0
-0.0093308766471 -0.0106854206668 0
0.00834466110702 -0.0136012801581 0
-4.76888020702e-05 -0.010066465692 0
0.0025959946608 -0.0209657057849 0
-0.0136282710946 -0.0246657432707 0
0.0136059087717 -0.0246596758417 0
-0.00489937582526 -0.00901533377034 0
-0.00836519493247 -0.0218144446998 0
0.00191932510441 -0.0209425198442 0
0.0114152424571 -0.0217487798703 0
-0.00488132328082 -0.0189691075648 0
-0.000823363860572 -0.0184339840988 0
0.00523603758861 -0.021218428239 0
-0.0146234360548 -0.0253789383804 0
0.0146209576033 -0.0253743062069 0
0.00612707528096 -0.0188740858066 0
0.00754131413208 -0.0143601311618 0
-0.00383316495974 -0.0207026349129 0
0.001329491498 -0.00604996416482 0
0.00319610008763 -0.00572693116321 0
0.00699309080044 -0.0170652830275 0
0.0044767161506 -0.0211604094159 0
-0.0020978611054 -0.00522254822195 0
0.00931190205289 -0.0184204826553 0
-0.00426468099276 -0.0193316919555 0
-0.000144963671117 -0.0190618333235 0
-0.0116197686446 -0.0219415845716 0
-0.00121005498094 -0.0179329963352 0
-0.00940892552813 -0.0201968484107 0
0.00867689274306 -0.0165975329727 0
0.000181755780451 -0.00701405434485 0
0.00782271968916 -0.0117415286965 0
0.00921196487526 -0.0223666029287 0
-0.000619242073489 -0.00835847206579 0
0.0032332349705 -0.0152470615636 0
-0.00296702084603 -0.00855111063616 0
-0.00552924559904 -0.0184450691561 0
0.00817510620426 -0.0220074184571 0
0.0110486056036 -0.0195768451247 0
-0.00786757621639 -0.0118391797895 0
0.00058429243398 -0.00711552352923 0
0.00650427816751 -0.0214724956998 0
-0.000575377366283 -0.00504727583312 0
0.0129283888415 -0.0170786822721 0
-0.0129275380107 -0.0170829695069 0
0.00241337057154 -0.0182447809326 0
0.00435516053538 -0.0157717747017 0
-0.00671616909951 -0.020074761732 0
0.00434679190917 -0.0107854900384 0
-0.00404873367278 -0.00579751534124 0
-0.0118575486349 -0.0235910334268 0
-0.00105633349952 -0.00210151231466 0
0.000892720775323 -0.0191167791097 0
-0.0031061651729 -0.019255887475 0
-0.00253651525486 -0.0192001865285 0
-0.00934521942422 -0.0223362483027 0
-0.00637655358912 -0.0180496539861 0
-0.0141694146558 -0.024124763581 0
-0.00873094926373 -0.0205566769279 0
0.0141671559883 -0.0241201725779 0
0.00749259434547 -0.0166683423372 0
-0.00454020416396 -0.0212402596916 0
-0.000315295271405 -0.020739578831 0
0.00318112469827 -0.01913007724 0
-0.00757128178034 -0.0133896359193 0
-0.0013100769413 -0.00674092415547 0
0.00265107288689 -0.0128990460653 0
0.00563859353533 -0.0151827978479 0
0.00606105487132 -0.0147171733018 0
0.00440044725602 -0.0200630642917 0
0.00172784838278 -0.0189803646734 0
-0.00737982668866 -0.0194438324897 0
0.0121237564612 -0.0225657589368 0
-0.00563840759378 -0.0115127062925 0
0.00128582569037 -0.0208939856574 0
-0.00575706595727 -0.00966621790238 0
0.00110196123726 -0.00213517835134 0
-0.0106141833808 -0.0210335622399 0
-0.0133060752704 -0.0234972224472 0
0.0131277890539 -0.0232916532838 0
0.000845568444216 -0.0106682801206 0
-0.0162445940487 -0.0266993922876 0
0.0162420669463 -0.0266939102232 0
0.00316149273978 -0.0209628810384 0
-0.0126460771019 -0.0240187357324 0
-0.0108285570891 -0.0148425220753 0
0.0108293199887 -0.0148355615263 0
0.00411377320788 -0.00923913663773 0
0.00507381996278 -0.0200137070606 0
0.00807621572223 -0.0192955399896 0
-0.00978047041877 -0.0213734446321 0
0.00053419253406 -0.0130549397206 0
-0.000289499544583 -0.00167624006076 0
0.00349754404434 -0.0174230580843 0
-0.00192230981761 -0.0168009159535 0
-0.00267143941645 -0.0131936280337 0
-0.0042281156578 -0.0169018239076 0
-0.000392503571208 -0.0166585852952 0
-0.0163084956307 -0.0255146041842 0
0.0163066054782 -0.0255086383356 0
-0.00441584910638 -0.0117551834932 0
0.00784561390713 -0.0203663301524 0
-0.0130585086463 -0.02168521799 0
-0.00297140675442 -0.0211088170424 0
0.0130514998946 -0.0216699592639 0
0.00988163353663 -0.0215473104406 0
0.000723421905466 -0.0179109278058 0
-0.00358795961624 -0.00777202985657 0
-0.00214514084564 -0.0108405311606 0
0.00282000721745 -0.00572751462473 0
-0.00319216570356 -0.0180761635699 0
-0.0153397650135 -0.0247878637429 0
0.015337746686 -0.0247825692562 0
0.00571453955849 -0.011471153044 0
0.00599894033315 -0.00711958525838 0
-0.00603203698139 -0.00716607656687 0
0.0102982078556 -0.0211461288458 0
0.000342745130948 -0.0154269908439 0
-0.00325780220078 -0.0155721025544 0
0.00194031329541 -0.00492743771144 0
0.00173581767887 -0.00613198595044 0
-0.00897257671814 -0.0108637525599 0
0.00896944156544 -0.0108579787461 0
-0.00913839058184 -0.0181380200503 0
-0.000604040428679 -0.00175044329051 0
0.0116543862024 -0.0235983877422 0
0.00454895152187 -0.00817932894304 0
0.00375037970236 -0.0210180068186 0
-0.0117075464917 -0.0192450062287 0
-0.00750688992552 -0.0205550624966 0
0.011715774675 -0.0192526425246 0
0.00715855851909 -0.0150461203555 0
-0.00152742828278 -0.0210724848169 0
0.00194855408381 -0.0159501131307 0
0.00088382103684 -0.00201339492252 0
0.00737307442595 -0.0217620123709 0
0.00573487113982 -0.00954718044807 0
0.00666839299222 -0.0198881251776 0
0.00482229960588 -0.0139110446442 0
0.0101548460328 -0.018294700041 0
0.000656703130334 -0.00212582154846 0
-0.00667027955675 -0.0165340992309 0
-0.0152464411332 -0.0260748323113 0
0.00372166104607 -0.0108243726222 0