# vtk DataFile Version 2.0
Generated with Solid Solver
ASCII
DATASET UNSTRUCTURED_GRID
POINTS 2071 float 
0.0 0.0 0.0
10.0 0.0 0.0
10.0 20.0 0.0
-20.0 20.0 0.0
-20.0 10.0 0.0
0.0 10.0 0.0
0.999999999999 0.0 0.0
2.0 0.0 0.0
2.99999999999 0.0 0.0
3.99999999999 0.0 0.0
4.99999999999 0.0 0.0
5.99999999999 0.0 0.0
7.0 0.0 0.0
8.0 0.0 0.0
9.0 0.0 0.0
10.0 0.999999999999 0.0
10.0 2.0 0.0
10.0 3.0 0.0
10.0 3.99999999999 0.0
10.0 4.99999999999 0.0
10.0 5.99999999999 0.0
10.0 6.99999999998 0.0
10.0 7.99999999998 0.0
10.0 8.99999999998 0.0
10.0 9.99999999998 0.0
10.0 11.0 0.0
10.0 12.0 0.0
10.0 13.0 0.0
10.0 14.0 0.0
10.0 15.0 0.0
10.0 16.0 0.0
10.0 17.0 0.0
10.0 18.0 0.0
10.0 19.0 0.0
9.0 20.0 0.0
8.0 20.0 0.0
6.99999999999 20.0 0.0
5.99999999999 20.0 0.0
4.99999999999 20.0 0.0
4.0 20.0 0.0
3.0 20.0 0.0
2.0 20.0 0.0
1.0 20.0 0.0
6.25988150205e-12 20.0 0.0
-0.99999999999 20.0 0.0
-1.99999999999 20.0 0.0
-2.99999999998 20.0 0.0
-3.99999999998 20.0 0.0
-4.99999999997 20.0 0.0
-5.99999999997 20.0 0.0
-6.99999999998 20.0 0.0
-7.99999999998 20.0 0.0
-8.99999999998 20.0 0.0
-9.99999999998 20.0 0.0
-11.0 20.0 0.0
-12.0 20.0 0.0
-13.0 20.0 0.0
-14.0 20.0 0.0
-15.0 20.0 0.0
-16.0 20.0 0.0
-17.0 20.0 0.0
-18.0 20.0 0.0
-19.0 20.0 0.0
-20.0 19.0 0.0
-20.0 18.0 0.0
-20.0 17.0 0.0
-20.0 16.0 0.0
-20.0 15.0 0.0
-20.0 14.0 0.0
-20.0 13.0 0.0
-20.0 12.0 0.0
-20.0 11.0 0.0
-19.0329977575 10.0 0.0
-18.1113475994 10.0 0.0
-17.2329224376 10.0 0.0
-16.3956949923 10.0 0.0
-15.597733316 10.0 0.0
-14.8371956474 10.0 0.0
-14.1123268623 10.0 0.0
-13.4214542233 10.0 0.0
-12.7629830742 10.0 0.0
-12.1353940855 10.0 0.0
-11.5372387717 10.0 0.0
-10.9671366818 10.0 0.0
-10.4237722165 10.0 0.0
-9.90589130414 10.0 0.0
-9.41229879029 10.0 0.0
-8.94185559951 10.0 0.0
-8.49347594212 10.0 0.0
-8.06612518054 10.0 0.0
-7.65881697361 10.0 0.0
-7.27061137753 10.0 0.0
-6.90061255877 10.0 0.0
-6.54796638055 10.0 0.0
-6.21185933156 10.0 0.0
-5.89151541224 10.0 0.0
-5.58619556423 10.0 0.0
-5.29519510151 10.0 0.0
-5.01784246183 10.0 0.0
-4.75349751783 10.0 0.0
-4.50155029428 10.0 0.0
-4.26141924928 10.0 0.0
-4.03255031446 10.0 0.0
-3.81441520197 10.0 0.0
-3.60651056475 10.0 0.0
-3.40835653758 10.0 0.0
-3.21949590617 10.0 0.0
-3.03949270176 10.0 0.0
-2.8679316561 10.0 0.0
-2.70441666855 10.0 0.0
-2.5485705233 10.0 0.0
-2.40003348808 10.0 0.0
-2.25846278795 10.0 0.0
-2.12353169446 10.0 0.0
-1.9949288258 10.0 0.0
-1.8723573735 10.0 0.0
-1.7555344747 10.0 0.0
-1.64419052108 10.0 0.0
-1.53806855119 10.0 0.0
-1.43692368344 10.0 0.0
-1.34052245965 10.0 0.0
-1.24864240971 10.0 0.0
-1.1610715059 10.0 0.0
-1.07760764424 10.0 0.0
-0.998058179286 10.0 0.0
-0.922239565106 10.0 0.0
-0.849976826003 10.0 0.0
-0.781103179635 10.0 0.0
-0.715459677654 10.0 0.0
-0.652894830525 10.0 0.0
-0.593264241542 10.0 0.0
-0.536430318814 10.0 0.0
-0.482261879958 10.0 0.0
-0.430633914055 10.0 0.0
-0.381427285416 10.0 0.0
-0.334528428775 10.0 0.0
-0.289829111853 10.0 0.0
-0.247226167235 10.0 0.0
-0.206621285058 10.0 0.0
-0.167920761576 10.0 0.0
-0.131035274597 10.0 0.0
-0.0958797042188 10.0 0.0
-0.0623729149086 10.0 0.0
-0.0304375830499 10.0 0.0
0.0 9.96925525521 0.0
0.0 9.9354542557 0.0
0.0 9.89829315097 0.0
0.0 9.85743794486 0.0
0.0 9.81252140333 0.0
0.0 9.76313979976 0.0
0.0 9.70884927243 0.0
0.0 9.64916182831 0.0
0.0 9.58354096812 0.0
0.0 9.51139689438 0.0
0.0 9.43208111181 0.0
0.0 9.34488069825 0.0
0.0 9.24901188048 0.0
0.0 9.14361293152 0.0
0.0 9.02773649003 0.0
0.0 8.90034097735 0.0
0.0 8.76028137613 0.0
0.0 8.60629870676 0.0
0.0 8.43700895421 0.0
0.0 8.25089043452 0.0
0.0 8.04627026656 0.0
0.0 7.82130918445 0.0
0.0 7.57398514977 0.0
0.0 7.30207522229 0.0
0.0 7.0031352612 0.0
0.0 6.67447822262 0.0
0.0 6.31315009058 0.0
0.0 5.91590305387 0.0
0.0 5.47916648761 0.0
0.0 4.99901483911 0.0
0.0 4.47113218081 0.0
0.0 3.89077389449 0.0
0.0 3.25272335611 0.0
0.0 2.55124557326 0.0
0.0 1.78003517375 0.0
0.0 0.932160318515 0.0
-0.0392505127759 15.0469532136 0.0
-4.95925563646 14.9055417079 0.0
5.04338399029 9.95240158346 0.0
0.0502004655988 12.495267777 0.0
-2.76832024626 12.7622479376 0.0
2.49997636902 9.9846276276 0.0
3.66615252973 6.45317274484 0.0
-0.015218791525 11.2499420967 0.0
-1.59750258551 11.6313990574 0.0
1.29934012502 9.99198790826 0.0
3.69960077516 13.7556627684 0.0
1.8300776814 11.918134021 0.0
1.67493311034 8.3256752696 0.0
-0.886108195554 10.9278422294 0.0
-9.81074408885 14.5659418162 0.0
-0.0183887362876 10.6395886465 0.0
0.640143123644 9.98059349713 0.0
0.932357496923 10.9300541182 0.0
0.818113952129 9.19497904179 0.0
-5.16509084756 12.3523116607 0.0
-0.51596530005 10.5060861001 0.0
-2.9742002983 11.3708233099 0.0
-14.4747612548 14.8021284593 0.0
-7.86247107707 12.7171228757 0.0
0.294799008421 10.3189825876 0.0
-0.015218791525 10.3122538743 0.0
0.312071024024 9.97428647917 0.0
0.463382066365 9.55658546138 0.0
-1.57973117042 10.7197906585 0.0
-0.962658722628 10.466606493 0.0
-0.268527639544 10.2581458791 0.0
1.44663884453 13.7235752523 0.0
2.62218196327 16.5596592347 0.0
-2.32535012907 10.7194520729 0.0
3.74998818451 11.4463717423 0.0
6.56898016542 12.6137260416 0.0
-4.16187485238 11.1984930706 0.0
2.98640987215 3.5717486253 0.0
-0.700029063498 11.8255830411 0.0
-1.37066625994 13.1466934612 0.0
-2.63220181204 15.0511503633 0.0
1.46056448745 6.8221602237 0.0
3.5564710328 8.44291185103 0.0
6.19755935219 7.57543605245 0.0
0.250782284433 9.73084020754 0.0
0.704444516326 11.9085143417 0.0
1.86532549999 10.7093578913 0.0
-11.8378497568 12.9171318066 0.0
6.273323574 16.4254632077 0.0
6.30647859521 4.44695815311 0.0
-0.51070379474 10.230141555 0.0
0.67285368472 8.52195353355 0.0
-6.37991285605 11.5050574146 0.0
1.65378750079 9.19207923336 0.0
-7.34310310982 16.8683451587 0.0
-0.343734288153 10.9330444865 0.0
-0.113031589807 10.1701849208 0.0
-9.65909504722 11.9413376763 0.0
0.453445829045 10.8043606886 0.0
0.799782727696 10.4489977914 0.0
0.155746040653 9.9846276276 0.0
0.0915407974051 10.1547580512 0.0
-1.10971135195 17.3211717651 0.0
-12.0429727619 16.8353576957 0.0
0.847647178728 7.70139301465 0.0
-4.07493729534 17.1767987765 0.0
-16.814308715 12.9527201166 0.0
-5.12215703456 11.0156614339 0.0
1.5833861679 5.23909066336 0.0
-1.29458243468 10.3475099934 0.0
-2.94884662284 10.6164780205 0.0
0.898672724184 9.64364617485 0.0
-0.748281428644 10.2366930978 0.0
0.371372400922 9.20672203981 0.0
-6.36501160689 13.7812290757 0.0
7.47328491221 9.76934584404 0.0
-16.857086721 16.857086721 0.0
-3.72362736322 12.2283922335 0.0
-1.93438831645 10.4425055315 0.0
-4.02462165584 13.6126091313 0.0
-0.222408339002 13.7349556849 0.0
2.71981312134 7.47276551322 0.0
-14.157125866 12.3623361217 0.0
2.69696104705 8.94382206687 0.0
3.78847523424 9.66810367755 0.0
-0.185666188952 10.4699268493 0.0
-0.015218791525 10.1130706625 0.0
-7.77783201669 11.2854654331 0.0
0.468562406784 9.81680994892 0.0
-1.33960889215 14.4946373608 0.0
-9.66764952782 17.176761409 0.0
0.977605951864 12.8343424462 0.0
2.88889634021 10.9245354453 0.0
1.35767463869 10.5261246307 0.0
-2.25986994536 11.4266446351 0.0
0.653463672486 16.8463832848 0.0
0.552259699994 11.3350330758 0.0
-0.0772911228069 11.8896724863 0.0
-3.66039337697 10.6843466574 0.0
-2.16398609432 12.2848148352 0.0
-0.227496316912 10.1230917552 0.0
1.88618102278 9.84331910275 0.0
-1.30784405438 12.333301581 0.0
-0.610418844954 11.3134369708 0.0
0.113125456433 9.87786554791 0.0
-7.92800046736 14.4083862835 0.0
0.192364864716 9.53972081218 0.0
0.146139804177 10.4661482207 0.0
0.468562406784 10.1487852478 0.0
-1.57431524105 10.3038640402 0.0
-0.375299087036 10.1510810135 0.0
-14.4588443638 17.2572176945 0.0
-1.21348399326 10.7302945181 0.0
-1.2942448749 11.2045507282 0.0
-0.953385340639 10.2136391456 0.0
-2.30926491791 13.8216658026 0.0
0.345463070153 8.87255089587 0.0
1.623637741 15.3781509609 0.0
0.248410725325 10.1032202533 0.0
5.35439148895 11.5530322637 0.0
2.67569120746 12.9790893185 0.0
5.69027242578 14.4119004467 0.0
4.95264666302 2.32676410986 0.0
7.29009537633 2.40122774859 0.0
7.74064004561 5.86589709844 0.0
0.140730226576 10.9332828409 0.0
0.930437588915 10.1523352691 0.0
-11.6098208295 14.9258796032 0.0
4.10449880484 15.5900621639 0.0
4.49740576141 17.7705973211 0.0
7.85183768423 14.3646853202 0.0
5.11599322265 8.57591130442 0.0
1.25707989006 8.75833681459 0.0
-11.1269831658 11.5190393396 0.0
1.34701158923 9.53448973911 0.0
-6.44976244132 15.4455756947 0.0
1.79933321785 2.1656403735 0.0
-0.250633282686 10.7085039317 0.0
-1.14536710654 16.0223817466 0.0
-1.84528201635 11.1555220282 0.0
2.83310765192 11.8758855073 0.0
1.29622831318 11.5159089176 0.0
4.1764111436 4.8034156773 0.0
5.3864537296 6.14565698414 0.0
-4.38959821752 10.6241852747 0.0
-12.7571315703 11.516937489 0.0
-0.642792451332 12.4735928202 0.0
-9.18870994949 13.3844385063 0.0
-0.754016120064 10.6522617788 0.0
0.923742891764 6.07541535369 0.0
1.49607306738 3.77863696569 0.0
-2.49341082572 10.376336903 0.0
2.56635425842 6.04066889938 0.0
-6.27247311485 12.6424886536 0.0
2.48672623597 14.3776493544 0.0
0.704464663079 10.2215386146 0.0
0.222210511147 10.704189804 0.0
4.69161015539 12.5302284863 0.0
0.231400608236 9.88976794132 0.0
-17.8144824719 14.8341256846 0.0
0.086605489219 10.0606514465 0.0
-5.19930999342 13.5798569614 0.0
-0.623079536033 10.1450883132 0.0
8.09139954613 7.87479880713 0.0
7.886195396 17.6915282754 0.0
8.15997188084 11.5122241035 0.0
-5.99702375379 10.7991961826 0.0
-7.08561196815 10.8861660093 0.0
0.157652794303 10.3214328887 0.0
-5.69681083544 17.9443594108 0.0
6.26118530295 10.5774421238 0.0
1.63092888567 10.1978229307 0.0
-5.13898557209 16.4314967744 0.0
-2.4490503726 16.5267252109 0.0
0.756396557571 6.94216023162 0.0
-3.81628585422 15.8815448058 0.0
-8.91973618508 11.13857618 0.0
4.50272265821 7.55058706195 0.0
0.53538320448 10.5355363189 0.0
-0.138097128212 10.2844217585 0.0
0.384368995876 8.19972395831 0.0
-1.95583176097 10.8145486937 0.0
0.128411167462 9.74766306409 0.0
2.28353792926 9.28571096019 0.0
-2.79340545717 12.1247479517 0.0
-0.354303812802 10.4024829135 0.0
[...]
POINT_DATA 2071
VECTORS Displacement float
0.0 0.0 0
0.0 0.0 0
-0.457809379276 0.103182202786 0
-0.4 -0.325687192656 0
-0.4 -0.312267236637 0
-0.23598117127 -0.112023494888 0
0.0 0.0 0
0.0 0.0 0
0.0 0.0 0
0.0 0.0 0
0.0 0.0 0
0.0 0.0 0
0.0 0.0 0
0.0 0.0 0
0.0 0.0 0
-0.0203209493784 0.0203254486843 0
-0.0354517873747 0.0369479372132 0
-0.0519810067567 0.0508618441326 0
-0.0705294349905 0.063058683553 0
-0.091325233118 0.0739550407954 0
-0.113749283606 0.0828046210258 0
-0.137887415935 0.0904081333824 0
-0.162846087945 0.0961641892909 0
-0.188649442566 0.100725212661 0
-0.214701420843 0.103662685587 0
-0.240787686005 0.105333593209 0
-0.266538938729 0.10616453911 0
-0.291763616566 0.10630561975 0
-0.316610093756 0.106024221666 0
-0.340794175678 0.105505455198 0
-0.364590188298 0.104857479602 0
-0.388069286875 0.104286415885 0
-0.411306553203 0.103832175156 0
-0.434538652738 0.103461630693 0
-0.457528777926 0.0798723223407 0
-0.457158058174 0.0565214699046 0
-0.456686305373 0.0331697367063 0
-0.456100892889 0.00997607793921 0
-0.455316706034 -0.0130626513745 0
-0.454372346422 -0.035830341276 0
-0.453254204338 -0.0582243656576 0
-0.451837009682 -0.0801354670844 0
-0.450314394024 -0.101653618354 0
-0.448508966873 -0.12232113298 0
-0.446484881031 -0.14218954888 0
-0.444041832445 -0.161177335688 0
-0.441744315024 -0.179300287706 0
-0.439304010882 -0.196105109046 0
-0.43655969897 -0.212012053497 0
-0.434123360245 -0.226940352136 0
-0.431486571632 -0.240429993873 0
-0.428919011449 -0.253331576611 0
-0.426336388311 -0.264967171456 0
-0.423790589976 -0.275463972578 0
-0.421359596712 -0.285043865187 0
-0.418891829259 -0.293597321735 0
-0.416489720636 -0.301064463881 0
-0.414164265783 -0.307594104278 0
-0.411614233021 -0.313093423917 0
-0.409324234879 -0.317583172105 0
-0.407054062586 -0.321125108304 0
-0.404826690703 -0.323509379812 0
-0.402366100369 -0.325103235055 0
-0.4 -0.326598023885 0
-0.4 -0.326874769526 0
-0.4 -0.326703188885 0
-0.4 -0.326101407057 0
-0.4 -0.325101066237 0
-0.4 -0.323495109043 0
-0.4 -0.321353760883 0
-0.4 -0.318779887037 0
-0.4 -0.315803833693 0
-0.392503545753 -0.311712448232 0
-0.385372466647 -0.310413076625 0
-0.378684272908 -0.308354518999 0
-0.372186471163 -0.305663183931 0
-0.366007469798 -0.302406827798 0
-0.360088246234 -0.298722199856 0
-0.354504662732 -0.294677883719 0
-0.349158492839 -0.290309223453 0
-0.344001516183 -0.285736159034 0
-0.339147397932 -0.280945777239 0
-0.334500315617 -0.276002004082 0
-0.330065662946 -0.270931847719 0
-0.325847253427 -0.265809520982 0
-0.321863513212 -0.260633579148 0
-0.318004965201 -0.255478184563 0
-0.314349563947 -0.250311520771 0
-0.310846351288 -0.245175102098 0
-0.30753210145 -0.240113338232 0
-0.304354496885 -0.23509416292 0
-0.301323679315 -0.230158635192 0
-0.298464933542 -0.225319138546 0
-0.295715269541 -0.2205866723 0
-0.293091925785 -0.215946062848 0
-0.290562338694 -0.211432589107 0
-0.288171207971 -0.207025739795 0
-0.285882564631 -0.202747158722 0
-0.283703224816 -0.19859380445 0
-0.281611314231 -0.194561249733 0
-0.279598532779 -0.190658038167 0
-0.277686307452 -0.186880366338 0
-0.275862382234 -0.183217705208 0
-0.274100910387 -0.179691274052 0
-0.272419990055 -0.176282878741 0
-0.270810081852 -0.172992667687 0
-0.269266976403 -0.16982301074 0
-0.267784578214 -0.166771037741 0
-0.266367237864 -0.163830830742 0
-0.265004813563 -0.161003871066 0
-0.263691675861 -0.158291745779 0
-0.262432529397 -0.155679879457 0
-0.261221361557 -0.153171421681 0
-0.260055387455 -0.150762438896 0
-0.25893282628 -0.148450738705 0
-0.257852673935 -0.146228515075 0
-0.256810452637 -0.144105789773 0
-0.255807789794 -0.142062983315 0
-0.254838777796 -0.140111572057 0
-0.253905163051 -0.138235120439 0
-0.253002923434 -0.136441067175 0
-0.252128327737 -0.134724311723 0
-0.2512840857 -0.133078344551 0
-0.250467700672 -0.131502604733 0
-0.249678419508 -0.130001187603 0
-0.248911949402 -0.128558970434 0
-0.248166938671 -0.127183250232 0
-0.247443559105 -0.125870118763 0
-0.246741917853 -0.124615674729 0
-0.246057314054 -0.123414387672 0
-0.245393528883 -0.122263470189 0
-0.244744921629 -0.121173595565 0
-0.244109265813 -0.120137770348 0
-0.243487856104 -0.119146136986 0
-0.242878400621 -0.118205089473 0
-0.242276293873 -0.117311205677 0
-0.241679592519 -0.116465974648 0
-0.241084673894 -0.115669837011 0
-0.240490007953 -0.114909037066 0
-0.239890832806 -0.114214660489 0
-0.239279967281 -0.113577589144 0
-0.238638662387 -0.112995841229 0
-0.237921666819 -0.112480494456 0
-0.237018444106 -0.112063950149 0
-0.233432266674 -0.112457774348 0
-0.231380632992 -0.112653976135 0
-0.229414592496 -0.112727460872 0
-0.227425352174 -0.112706618836 0
-0.225391727678 -0.112650145272 0
-0.223256315068 -0.112531089385 0
-0.221024029965 -0.11238956332 0
-0.218664592248 -0.112195662194 0
-0.216138512506 -0.111949243897 0
-0.213462251103 -0.111671714043 0
-0.210582322526 -0.111325826089 0
-0.207511055424 -0.110927090121 0
-0.204225540701 -0.110481836926 0
-0.200671389877 -0.109941194372 0
-0.196857463303 -0.109336316644 0
-0.192762992594 -0.108648265338 0
-0.188358101836 -0.107844557813 0
-0.183606949475 -0.106928587365 0
-0.178470286741 -0.105887444517 0
-0.172948456402 -0.104701122218 0
-0.166985457331 -0.103312048702 0
-0.160605005171 -0.1017346594 0
-0.153725789773 -0.0998977166523 0
-0.146286280176 -0.0978355529413 0
-0.138307938134 -0.0954471756916 0
-0.129824516103 -0.0926809507483 0
-0.120714358177 -0.0894290848837 0
-0.110996880552 -0.0856573685931 0
-0.100812945564 -0.0812878929688 0
-0.0900620555414 -0.0761332296594 0
-0.0788366859889 -0.0701354693391 0
-0.0671116479155 -0.0632298155224 0
-0.0553021488023 -0.0551319706675 0
-0.0430406923938 -0.0454487982516 0
-0.0309931153361 -0.0340044181213 0
-0.0185501450522 -0.0195176415438 0
-0.350843112734 -0.122050367325 0
-0.35865427135 -0.210796148539 0
-0.211669288075 -0.00182430924124 0
-0.29789372721 -0.116210012767 0
-0.315153264965 -0.171218320937 0
-0.220047424948 -0.0513496821611 0
-0.11518780638 -0.0191970676223 0
-0.270063909896 -0.114859673757 0
-0.287439580591 -0.147430434703 0
-0.226149007845 -0.0774865922375 0
-0.314583985608 -0.0379709996401 0
-0.276596414809 -0.0743794362076 0
-0.171696269451 -0.0620560014467 0
-0.268018965467 -0.131959381485 0
-0.368050160916 -0.272309875033 0
-0.255060723141 -0.113455321623 0
-0.229743330221 -0.0934450303648 0
-0.256341708511 -0.091166405999 0
-0.201204692907 -0.0857714499095 0
-0.32026330141 -0.208827638731 0
-0.255529089671 -0.123380225285 0
-0.291135016185 -0.170935160181 0
-0.383915177824 -0.309548705306 0
-0.3392101399 -0.246463813804 0
-0.243930869237 -0.104563452723 0
-0.246264032081 -0.112653771504 0
-0.231781234847 -0.102235228626 0
-0.214707627972 -0.0965772127053 0
-0.268953250446 -0.144060256535 0
-0.258642499529 -0.131628088494 0
-0.247175616913 -0.117634155787 0
-0.319846522605 -0.0880642369468 0
-0.378889639349 -0.0659138336369 0
-0.274729953058 -0.157383384219 0
-0.256284086904 -0.0309922854397 0
-0.281540295756 0.0265106839724 0
-0.29607835625 -0.189843198906 0
-0.048381807114 -0.0173752771054 0
-0.286651155253 -0.130616400698 0
-0.31674154774 -0.146377927175 0
-0.355744040816 -0.172344684879 0
-0.12919841151 -0.0595760276576 0
-0.171030331003 -0.0258349945849 0
-0.144534846822 0.019175687746 0
-0.221871175748 -0.103349499757 0
-0.281841906927 -0.100178363654 0
-0.244431723139 -0.0683114598128 0
-0.360731665335 -0.287679655446 0
-0.374269576474 0.0172824377427 0
-0.066199337725 0.0141897481641 0
-0.249158965549 -0.122016732476 0
-0.179701383475 -0.0870724193771 0
-0.315019367703 -0.223703237672 0
-0.198793397702 -0.0658937179982 0
-0.390212257083 -0.246152849016 0
-0.264444392539 -0.121229025653 0
-0.243141008956 -0.11436902101 0
-0.340095229503 -0.264748568167 0
-0.256218275898 -0.10246466439 0
-0.243789861529 -0.0920124304771 0
-0.233450173499 -0.106866182221 0
-0.240676662748 -0.109595971963 0
-0.395479950379 -0.145078989381 0
-0.393364686679 -0.295027111625 0
-0.155014258772 -0.0784573779107 0
-0.393227385958 -0.198507141654 0
-0.384789393169 -0.316241315056 0
-0.299712661985 -0.204016558223 0
-0.0889452672129 -0.0471330124292 0
-0.259192501455 -0.137243453546 0
-0.277633203661 -0.167760968591 0
-0.216482010528 -0.0853705898064 0
-0.251782276058 -0.126513491941 0
-0.202327320687 -0.0983074441344 0
-0.346590438346 -0.229409667772 0
-0.2053554856 0.0453160078135 0
-0.397370075223 -0.321772452186 0
-0.310513149853 -0.185972241517 0
-0.266487569268 -0.149323122465 0
-0.335098203366 -0.194053041003 0
-0.324877465737 -0.124195703695 0
-0.144586182172 -0.0379987187266 0
-0.368627338347 -0.302673192755 0
-0.187946097277 -0.0434038513356 0
-0.206281498021 -0.0249120739811 0
-0.251856923249 -0.116733739714 0
-0.240381154449 -0.112317333916 0
-0.321069385722 -0.241235582998 0
-0.224644897109 -0.09722848892 0
-0.342717528432 -0.147657162955 0
-0.395058401825 -0.273311077764 0
-0.301762656766 -0.0965015527978 0
-0.245356425863 -0.0471591682511 0
-0.242206575578 -0.078962354323 0
-0.287519441 -0.158751487923 0
-0.385889214513 -0.108933747066 0
-0.268973633369 -0.10194573399 0
-0.285095242969 -0.117700231571 0
-0.284102742627 -0.179904609835 0
-0.303374073356 -0.15944093098 0
-0.243383112709 -0.116170783886 0
-0.218495025691 -0.063660960358 0
-0.300212110756 -0.143640138785 0
-0.274867620787 -0.127635810524 0
-0.228505770945 -0.108053058548 0
-0.360334353245 -0.250859998181 0
-0.214394793636 -0.104934751676 0
-0.249327469261 -0.10905696234 0
-0.236933340127 -0.09889358993 0
-0.260821968364 -0.142188000189 0
-0.245882436121 -0.119040933053 0
-0.397685376698 -0.311507501896 0
-0.266266344759 -0.137384160838 0
-0.276770522733 -0.140545854382 0
-0.253359389872 -0.130252940028 0
-0.332789007212 -0.164986722247 0
-0.191287114561 -0.097816913009 0
-0.354892272825 -0.0867996767981 0
-0.237312417189 -0.104759583308 0
-0.255166992244 0.00185565085729 0
-0.298968073352 -0.0588496165713 0
-0.327153237142 0.00544813282349 0
-0.0244458050343 1.77076780869e-05 0
-0.028393167464 0.0135640311408 0
-0.102652790047 0.0389508150773 0
-0.261486133822 -0.110486591414 0
-0.233600517901 -0.0871035721207 0
-0.37673248528 -0.289657774414 0
-0.356308967592 -0.0316471513696 0
-0.404900314851 -0.02423550937 0
-0.325099469621 0.05481405277 0
-0.172612749323 0.00105777827293 0
-0.186011158064 -0.0732708540405 0
-0.344828320549 -0.277666529464 0
-0.210978119791 -0.074218140727 0
-0.369982706271 -0.233155424528 0
-0.026506812391 -0.0185514508645 0
-0.258373507027 -0.11871645441 0
-0.371224764134 -0.145210660801 0
-0.279517481589 -0.150468130008 0
-0.27106667751 -0.0519180747555 0
-0.269296723131 -0.0850603388483 0
-0.0735153566206 -0.00874685336304 0
-0.106254077292 0.00567322994226 0
-0.288486106651 -0.191357421368 0
-0.354956210515 -0.290962741831 0
-0.300232174932 -0.130755264446 0
-0.353171451431 -0.263414396264 0
-0.260876100895 -0.128482748089 0
-0.11137423552 -0.0660328630101 0
-0.05743072165 -0.0366746822984 0
-0.269832712917 -0.158934576472 0
-0.106201218435 -0.0350623967164 0
-0.330240672895 -0.225516628969 0
-0.331672508273 -0.0661968523298 0
-0.237456388728 -0.0931347498776 0
-0.255140321522 -0.107859336966 0
-0.282066278455 -0.0137856783472 0
-0.228711324347 -0.104243550934 0
-0.393747602462 -0.322479188268 0
-0.237453635013 -0.109391087298 0
-0.339111566544 -0.212245902281 0
-0.248583671924 -0.123666460217 0
-0.154868775508 0.0535952350661 0
-0.403687767571 0.0544222607133 0
-0.252605890582 0.0617265939282 0
-0.302618675051 -0.215961567029 0
-0.311388912818 -0.231067446002 0
-0.245156208039 -0.108303472853 0
-0.40483731205 -0.223665951284 0
-0.227582144342 0.0212343541327 0
-0.230730980051 -0.0709829924009 0
-0.38224266153 -0.214978317068 0
-0.381524067316 -0.170098380089 0
-0.134321742527 -0.0760096747965 0
-0.371943537567 -0.193538475908 0
-0.326853289191 -0.254186224431 0
-0.144235608987 -0.0081225707484 0
-0.248318016894 -0.0992145844736 0
-0.246543855023 -0.115233093044 0
-0.170537185966 -0.0933432346544 0
-0.27369907824 -0.151211325579 0
-0.222659039023 -0.107486184669 0
-0.199629576108 -0.0529386585392 0
-0.303663576147 -0.170098557723 0
-0.251600919693 -0.119868572684 0
-0.150076945746 -0.0607448526658 0
-0.24081820076 -0.113961140747 0
-0.254403323705 -0.0801801663187 0
-0.224261569144 -0.0363327022181 0
-0.230831938557 -0.0209754318928 0
-0.413772364872 -0.087355402154 0
-0.310045889083 -0.19707078955 0
-0.221735376221 -0.0907566622073 0
-0.27780873464 -0.121203646214 0
-0.276898255859 -0.173098825391 0
-0.379395271738 -0.261118252436 0
-0.310508434536 -0.125915603337 0
-0.293279211467 -0.180169763024 0
-0.169972111559 -0.0745166250678 0
-0.232438629854 -0.109174204854 0
-0.373246223337 -0.300342556146 0
-0.276971739671 -0.110812926911 0
-0.361690934271 -0.278412490149 0
-0.18351775661 -0.0539409393183 0
-0.322511735283 -0.196804487128 0
-0.284378890896 -0.0870946688803 0
-0.256106750141 -0.126976294563 0
-0.374700482106 -0.309077675595 0
-0.261263204089 -0.124297040322 0
-0.28151271825 -0.135588974806 0
-0.332905394362 -0.109199493514 0
-0.193616618254 0.0174320933917 0
-0.316515686234 -0.15933500284 0
-0.257942172732 -0.0625777888386 0
-0.310841473371 -0.113867581863 0
-0.29956138071 -0.0800937802504 0
-0.267458188158 -0.126371472379 0
-0.0751585138953 -0.0266655140876 0
-0.207001839043 -0.104097984478 0
-0.266079025164 -0.153201922119 0
-0.25506631829 -0.133941685348 0
-0.260270786757 -0.115090782745 0
-0.408023485861 -0.173863866061 0
-0.206898084861 -0.0389846814489 0
-0.229902589692 -0.0608648526349 0
-0.250799614698 -0.113187343195 0
-0.312748452576 -0.213008231975 0
-0.0618562257166 0.0280313466929 0
-0.246453979841 -0.121293192259 0
-0.252132337127 -0.0953023779201 0
-0.334107897794 -0.267408816832 0
-0.342370078315 -0.180296197506 0
-0.325750079546 -0.235061533148 0
-0.408090220866 -0.258678746546 0
-0.282656334333 -0.164912900151 0
-0.261214290167 -0.146142990729 0
-0.41510967782 -0.123883506997 0
-0.389748985243 -0.316530256149 0
-0.226755456918 -0.088101785635 0
-0.166325537407 -0.0423212823158 0
-0.365931440374 0.0564050996937 0
-0.290223916897 -0.198559063582 0
-0.332831394213 -0.250883747219 0
-0.230648168834 -0.0979229398357 0
-0.271172218101 -0.163745532939 0
-0.294855531388 -0.206991899863 0
-0.385580147924 -0.301874485252 0
-0.180528982793 -0.0979644510599 0
-0.199430993045 -0.0762730496533 0
-0.0245998290637 -0.00869088989081 0
-0.382983912062 -0.2818046943 0
-0.404968967204 -0.287380593239 0
-0.414444538854 0.0113700182075 0
-0.387737853857 -0.317018489699 0
-0.289021141534 -0.109658925301 0
-0.322633952279 -0.186265129634 0
-0.243471662086 -0.112633011666 0
-0.271165615602 -0.12117007804 0
-0.400937470796 -0.325288515126 0
-0.40421551761 -0.302470558735 0
-0.289505806233 -0.0400000154369 0
-0.190498574049 -0.0879706713402 0
-0.210364460207 -0.0891959461456 0
-0.25660252714 -0.137926091102 0
-0.183421735977 -0.0145441948655 0
-0.401903819846 -0.319008185087 0
-0.248791724619 -0.119919309931 0
-0.243701532243 -0.117493232781 0
-0.290652571575 -0.141211774546 0
-0.239961576487 -0.0845899494058 0
-0.263518826958 -0.133065387088 0
-0.32849413628 -0.13956682791 0
-0.242111171674 -0.0986581684595 0
-0.263779114323 -0.104868753931 0
-0.281627991547 -0.183141301888 0
-0.249581501849 -0.1045499587 0
-0.350837730924 -0.275719827427 0
-0.392244552716 -0.316020519257 0
-0.263953433301 -0.141229729252 0
-0.249974649415 -0.127133008109 0
-0.219239607949 -0.0711611270871 0
-0.226988625415 -0.100706847742 0
-0.296773304814 -0.149761421093 0
-0.222147081653 -0.0822727248674 0
-0.284623225028 -0.173910678295 0
-0.393053993821 -0.320965495406 0
-0.359509335303 -0.297151015803 0
-0.241708234581 -0.0579321118322 0
-0.379465939347 -0.311327379984 0
-0.289533244308 0.0604856303464 0
-0.267295770059 -0.0935382569109 0
-0.31784052146 -0.245493934245 0
-0.354515930859 -0.0637326471655 0
-0.328284809327 -0.175379335811 0
-0.248163943454 -0.0885686750149 0
-0.301406770517 -0.178054481134 0
-0.239156625736 -0.112871877037 0
-0.079292324583 -0.0558009678637 0
-0.302680320921 -0.198837803103 0
-0.266352771635 -0.117463252051 0
-0.339845031127 -0.13212891462 0
-0.29662537413 0.00484506974109 0
-0.252690749913 -0.12476974175 0
-0.255975076679 -0.12063817804 0
-0.2918736843 -0.154754228091 0
-0.397792565317 -0.325193844389 0
-0.198750634214 -0.103451790885 0
-0.148045872156 -0.0861386893277 0
-0.347801578944 -0.241812452781 0
-0.370125939878 -0.124282186169 0
-0.235506119449 -0.101583251999 0
-0.17270847878 0.0339654200936 0
-0.291418745418 -0.125689154079 0
-0.29955345668 -0.107615678861 0
-0.217996838057 -0.107788385058 0
-0.241571642666 -0.106944553351 0
-0.108428955498 -0.0497954664377 0
-0.2718598876 -0.142017228708 0
-0.306897350942 -0.151473174594 0
-0.280493128329 -0.156746556224 0
-0.147637401967 -0.025320406785 0
-0.304290788088 -0.222730581855 0
-0.04498388605 -0.0051896082478 0
-0.302415932199 -0.188109751077 0
-0.252092214618 -0.122176128467 0
-0.206595970999 -0.0942658780661 0
-0.350468281021 -0.195977770077 0
-0.261250428644 -0.135503930099 0
-0.274478259875 -0.133135349588 0
-0.262729856003 -0.0737848187204 0
-0.260328667936 -0.0981390471026 0
-0.266145851578 -0.145741401232 0
-0.241437692903 -0.11503476556 0
-0.220436383193 -0.0986564465638 0
-0.111675662845 0.021969186297 0
-0.344021086559 0.0274387685675 0
-0.405047650397 -0.0562331968526 0
-0.317523767129 -0.101635992676 0
-0.275969749779 -0.162406144082 0
-0.198104536701 -0.0919112854685 0
-0.249627773038 -0.117425606893 0
-0.416237371767 -0.206202228891 0
-0.27030743742 -0.136826215631 0
-0.211033187996 -0.100380597599 0
-0.21982673638 -0.0944891749511 0
-0.158109884112 -0.0517990119424 0
-0.245046589069 -0.116051331905 0
-0.189629187725 -0.0283783460288 0
-0.352671141394 -0.220531050831 0
-0.238194921047 -0.111622281721 0
-0.239868993859 -0.103726518945 0
-0.0146605407599 0.00406842188071 0
-0.344928595594 -0.282451542657 0
-0.234095035146 -0.077982091595 0
-0.207162620195 -0.0813602856582 0
-0.240357298086 -0.0338831479681 0
-0.137320582608 -0.0489161486455 0
-0.420658948911 -0.152678679372 0
-0.238118321275 -0.00711584890288 0
-0.336761166645 -0.235820952553 0
-0.286650481563 -0.0655910749969 0
-0.185408178812 -0.0632428561295 0
-0.25679433803 -0.132938066518 0
-0.23665767116 -0.106994800056 0
-0.234107744657 -0.104688992511 0
-0.296336669239 -0.163244789359 0
-0.254813981842 -0.129344554377 0
-0.243820965948 -0.11060885554 0
-0.248890942321 -0.114470582037 0
-0.310356884313 -0.136357434841 0
-0.337786757957 -0.0440389113626 0
-0.331315202932 -0.0215626644765 0
-0.358533901078 -0.239277845767 0
-0.372267606512 -0.247755740711 0
-0.35895757507 -0.15605575369 0
-0.0369510941486 0.00831916386284 0
-0.351141183009 -0.253523593564 0
-0.0193541301304 0.0154937366419 0
-0.364119629645 -0.295460992343 0
-0.294321987228 -0.136156153991 0
-0.380852223968 -0.312321382021 0
-0.0924915823103 -0.0212469741802 0
-0.328927487347 -0.151747758421 0
-0.244730506939 -0.119279311275 0
-0.25305074697 0.0234326108969 0
-0.311294640182 0.0304472005665 0
-0.193218145909 -0.0803424265133 0
-0.408857156844 -0.273531296323 0
-0.27043519934 -0.109111156998 0
-0.381613668219 -0.0414955048731 0
-0.337677829439 -0.0917863027772 0
-0.142518886987 -0.0689667482864 0
-0.220338164119 0.0727019126322 0
-0.225465189399 -0.10565353309 0
-0.290413943332 -0.0984436136611 0
-0.359025377132 -0.107211166448 0
-0.408252479178 -0.242564333084 0
-0.235648977248 -0.110169104768 0
-0.184203000213 0.0678575930254 0
-0.0434060665851 -0.0357108754424 0
-0.311318365428 -0.178582880936 0
-0.375834395517 -0.0121663554603 0
-0.245229881802 -0.117606644933 0
-0.311830043118 -0.237395266817 0
-0.255282648 -0.116406340369 0
-0.247883167669 -0.11054065408 0
-0.354497963923 -0.139768612457 0
-0.122972438682 -0.0794146797834 0
-0.0966160306122 -0.0653183898779 0
-0.405459351209 -0.311436379774 0
-0.331884328766 -0.217418277862 0
-0.27046225499 -0.154247013761 0
-0.252268490112 -0.131342910894 0
-0.393633243812 -0.260289392824 0
-0.0437205564238 0.0302562789912 0