# vtk DataFile Version 2.0
Generated with Solid Solver
ASCII
DATASET UNSTRUCTURED_GRID
POINTS 3751 float 
0.0 0.0 0.0
12.0 0.0 0.0
12.0 4.0 0.0
0.0 4.0 0.0
0.0999999999996 0.0 0.0
0.199999999999 0.0 0.0
0.299999999999 0.0 0.0
0.399999999998 0.0 0.0
0.499999999998 0.0 0.0
0.599999999997 0.0 0.0
0.699999999997 0.0 0.0
0.799999999996 0.0 0.0
0.899999999996 0.0 0.0
0.999999999996 0.0 0.0
1.1 0.0 0.0
1.2 0.0 0.0
1.29999999999 0.0 0.0
1.39999999999 0.0 0.0
1.49999999999 0.0 0.0
1.59999999999 0.0 0.0
1.69999999999 0.0 0.0
1.79999999999 0.0 0.0
1.89999999999 0.0 0.0
1.99999999999 0.0 0.0
2.09999999999 0.0 0.0
2.19999999999 0.0 0.0
2.29999999999 0.0 0.0
2.39999999999 0.0 0.0
2.49999999999 0.0 0.0
2.59999999999 0.0 0.0
2.69999999999 0.0 0.0
2.79999999999 0.0 0.0
2.89999999999 0.0 0.0
2.99999999999 0.0 0.0
3.09999999999 0.0 0.0
3.19999999999 0.0 0.0
3.29999999999 0.0 0.0
3.39999999999 0.0 0.0
3.49999999999 0.0 0.0
3.59999999999 0.0 0.0
3.69999999999 0.0 0.0
3.79999999998 0.0 0.0
3.89999999998 0.0 0.0
3.99999999998 0.0 0.0
4.09999999998 0.0 0.0
4.19999999998 0.0 0.0
4.29999999998 0.0 0.0
4.39999999998 0.0 0.0
4.49999999998 0.0 0.0
4.59999999998 0.0 0.0
4.69999999998 0.0 0.0
4.79999999998 0.0 0.0
4.89999999998 0.0 0.0
4.99999999998 0.0 0.0
5.09999999998 0.0 0.0
5.19999999998 0.0 0.0
5.29999999998 0.0 0.0
5.39999999998 0.0 0.0
5.49999999998 0.0 0.0
5.59999999998 0.0 0.0
5.69999999998 0.0 0.0
5.79999999998 0.0 0.0
5.89999999998 0.0 0.0
5.99999999998 0.0 0.0
6.09999999998 0.0 0.0
6.19999999998 0.0 0.0
6.29999999998 0.0 0.0
6.39999999998 0.0 0.0
6.49999999998 0.0 0.0
6.59999999998 0.0 0.0
6.69999999998 0.0 0.0
6.79999999998 0.0 0.0
6.89999999998 0.0 0.0
6.99999999998 0.0 0.0
7.09999999998 0.0 0.0
7.19999999998 0.0 0.0
7.29999999998 0.0 0.0
7.39999999998 0.0 0.0
7.49999999998 0.0 0.0
7.59999999998 0.0 0.0
7.69999999998 0.0 0.0
7.79999999998 0.0 0.0
7.89999999998 0.0 0.0
7.99999999998 0.0 0.0
8.09999999999 0.0 0.0
8.19999999999 0.0 0.0
8.29999999999 0.0 0.0
8.39999999999 0.0 0.0
8.49999999999 0.0 0.0
8.59999999999 0.0 0.0
8.69999999999 0.0 0.0
8.79999999999 0.0 0.0
8.89999999999 0.0 0.0
8.99999999999 0.0 0.0
9.09999999999 0.0 0.0
9.19999999999 0.0 0.0
9.29999999999 0.0 0.0
9.39999999999 0.0 0.0
9.49999999999 0.0 0.0
9.59999999999 0.0 0.0
9.69999999999 0.0 0.0
9.79999999999 0.0 0.0
9.89999999999 0.0 0.0
9.99999999999 0.0 0.0
10.1 0.0 0.0
10.2 0.0 0.0
10.3 0.0 0.0
10.4 0.0 0.0
10.5 0.0 0.0
10.6 0.0 0.0
10.7 0.0 0.0
10.8 0.0 0.0
10.9 0.0 0.0
11.0 0.0 0.0
11.1 0.0 0.0
11.2 0.0 0.0
11.3 0.0 0.0
11.4 0.0 0.0
11.5 0.0 0.0
11.6 0.0 0.0
11.7 0.0 0.0
11.8 0.0 0.0
11.9 0.0 0.0
12.0 0.133333333333 0.0
12.0 0.266666666666 0.0
12.0 0.399999999999 0.0
12.0 0.533333333332 0.0
12.0 0.666666666665 0.0
12.0 0.799999999998 0.0
12.0 0.933333333331 0.0
12.0 1.06666666666 0.0
12.0 1.2 0.0
12.0 1.33333333333 0.0
12.0 1.46666666666 0.0
12.0 1.6 0.0
12.0 1.73333333333 0.0
12.0 1.86666666666 0.0
12.0 1.99999999999 0.0
12.0 2.13333333333 0.0
12.0 2.26666666666 0.0
12.0 2.4 0.0
12.0 2.53333333333 0.0
12.0 2.66666666666 0.0
12.0 2.8 0.0
12.0 2.93333333333 0.0
12.0 3.06666666666 0.0
12.0 3.2 0.0
12.0 3.33333333333 0.0
12.0 3.46666666667 0.0
12.0 3.6 0.0
12.0 3.73333333333 0.0
12.0 3.86666666667 0.0
11.9 4.0 0.0
11.8 4.0 0.0
11.7 4.0 0.0
11.6 4.0 0.0
11.5 4.0 0.0
11.4 4.0 0.0
11.3 4.0 0.0
11.2 4.0 0.0
11.1 4.0 0.0
11.0 4.0 0.0
10.9 4.0 0.0
10.8 4.0 0.0
10.7 4.0 0.0
10.6 4.0 0.0
10.5 4.0 0.0
10.4 4.0 0.0
10.3 4.0 0.0
10.2 4.0 0.0
10.1 4.0 0.0
10.0 4.0 0.0
9.90000000001 4.0 0.0
9.80000000001 4.0 0.0
9.70000000001 4.0 0.0
9.60000000001 4.0 0.0
9.50000000001 4.0 0.0
9.40000000001 4.0 0.0
9.30000000001 4.0 0.0
9.20000000001 4.0 0.0
9.10000000001 4.0 0.0
9.00000000001 4.0 0.0
8.90000000001 4.0 0.0
8.80000000001 4.0 0.0
8.70000000001 4.0 0.0
8.60000000001 4.0 0.0
8.50000000001 4.0 0.0
8.40000000001 4.0 0.0
8.30000000001 4.0 0.0
8.20000000001 4.0 0.0
8.10000000001 4.0 0.0
8.00000000001 4.0 0.0
7.90000000001 4.0 0.0
7.80000000001 4.0 0.0
7.70000000001 4.0 0.0
7.60000000001 4.0 0.0
7.50000000001 4.0 0.0
7.40000000001 4.0 0.0
7.30000000001 4.0 0.0
7.20000000001 4.0 0.0
7.10000000001 4.0 0.0
7.00000000001 4.0 0.0
6.90000000001 4.0 0.0
6.80000000001 4.0 0.0
6.70000000001 4.0 0.0
6.60000000001 4.0 0.0
6.50000000001 4.0 0.0
6.40000000001 4.0 0.0
6.30000000002 4.0 0.0
6.20000000002 4.0 0.0
6.10000000002 4.0 0.0
6.00000000002 4.0 0.0
5.90000000002 4.0 0.0
5.80000000002 4.0 0.0
5.70000000002 4.0 0.0
5.60000000002 4.0 0.0
5.50000000002 4.0 0.0
5.40000000002 4.0 0.0
5.30000000001 4.0 0.0
5.20000000001 4.0 0.0
5.10000000001 4.0 0.0
5.00000000001 4.0 0.0
4.90000000001 4.0 0.0
4.80000000001 4.0 0.0
4.70000000001 4.0 0.0
4.60000000001 4.0 0.0
4.50000000001 4.0 0.0
4.40000000001 4.0 0.0
4.30000000001 4.0 0.0
4.20000000001 4.0 0.0
4.10000000001 4.0 0.0
4.00000000001 4.0 0.0
3.90000000001 4.0 0.0
3.80000000001 4.0 0.0
3.70000000001 4.0 0.0
3.60000000001 4.0 0.0
3.50000000001 4.0 0.0
3.40000000001 4.0 0.0
3.30000000001 4.0 0.0
3.20000000001 4.0 0.0
3.10000000001 4.0 0.0
3.00000000001 4.0 0.0
2.90000000001 4.0 0.0
2.80000000001 4.0 0.0
2.70000000001 4.0 0.0
2.60000000001 4.0 0.0
2.50000000001 4.0 0.0
2.40000000001 4.0 0.0
2.30000000001 4.0 0.0
2.20000000001 4.0 0.0
2.10000000001 4.0 0.0
2.00000000001 4.0 0.0
1.90000000001 4.0 0.0
1.80000000001 4.0 0.0
1.7 4.0 0.0
1.6 4.0 0.0
1.5 4.0 0.0
1.4 4.0 0.0
1.3 4.0 0.0
1.2 4.0 0.0
1.1 4.0 0.0
1.0 4.0 0.0
0.900000000003 4.0 0.0
0.800000000002 4.0 0.0
0.700000000002 4.0 0.0
0.600000000002 4.0 0.0
0.500000000001 4.0 0.0
0.400000000001 4.0 0.0
0.300000000001 4.0 0.0
0.200000000001 4.0 0.0
0.1 4.0 0.0
0.0 3.86666666667 0.0
0.0 3.73333333333 0.0
0.0 3.6 0.0
0.0 3.46666666666 0.0
0.0 3.33333333333 0.0
0.0 3.2 0.0
0.0 3.06666666667 0.0
0.0 2.93333333334 0.0
0.0 2.8 0.0
0.0 2.66666666667 0.0
0.0 2.53333333334 0.0
0.0 2.40000000001 0.0
0.0 2.26666666667 0.0
0.0 2.13333333334 0.0
0.0 2.00000000001 0.0
0.0 1.86666666667 0.0
0.0 1.73333333334 0.0
0.0 1.60000000001 0.0
0.0 1.46666666667 0.0
0.0 1.33333333334 0.0
0.0 1.2 0.0
0.0 1.06666666667 0.0
0.0 0.933333333337 0.0
0.0 0.800000000003 0.0
0.0 0.666666666669 0.0
0.0 0.533333333336 0.0
0.0 0.400000000002 0.0
0.0 0.266666666668 0.0
0.0 0.133333333334 0.0
11.9 3.86666666667 0.0
11.9 3.73333333333 0.0
11.9 3.6 0.0
11.9 3.46666666667 0.0
11.9 3.33333333333 0.0
11.9 3.2 0.0
11.9 3.06666666666 0.0
11.9 2.93333333333 0.0
11.9 2.8 0.0
11.9 2.66666666666 0.0
11.9 2.53333333333 0.0
11.9 2.4 0.0
11.9 2.26666666666 0.0
11.9 2.13333333333 0.0
11.9 1.99999999999 0.0
11.9 1.86666666666 0.0
11.9 1.73333333333 0.0
11.9 1.6 0.0
11.9 1.46666666666 0.0
11.9 1.33333333333 0.0
11.9 1.2 0.0
11.9 1.06666666666 0.0
11.9 0.933333333331 0.0
11.9 0.799999999998 0.0
11.9 0.666666666665 0.0
11.9 0.533333333332 0.0
11.9 0.399999999999 0.0
11.9 0.266666666666 0.0
11.9 0.133333333333 0.0
11.8 3.86666666667 0.0
11.8 3.73333333333 0.0
11.8 3.6 0.0
11.8 3.46666666667 0.0
11.8 3.33333333333 0.0
11.8 3.2 0.0
11.8 3.06666666666 0.0
11.8 2.93333333333 0.0
11.8 2.8 0.0
11.8 2.66666666666 0.0
11.8 2.53333333333 0.0
11.8 2.4 0.0
11.8 2.26666666666 0.0
11.8 2.13333333333 0.0
11.8 1.99999999999 0.0
11.8 1.86666666666 0.0
11.8 1.73333333333 0.0
11.8 1.6 0.0
11.8 1.46666666666 0.0
11.8 1.33333333333 0.0
11.8 1.2 0.0
11.8 1.06666666666 0.0
11.8 0.933333333331 0.0
11.8 0.799999999998 0.0
11.8 0.666666666665 0.0
11.8 0.533333333332 0.0
11.8 0.399999999999 0.0
11.8 0.266666666666 0.0
11.8 0.133333333333 0.0
11.7 3.86666666667 0.0
11.7 3.73333333333 0.0
11.7 3.6 0.0
11.7 3.46666666667 0.0
11.7 3.33333333333 0.0
11.7 3.2 0.0
11.7 3.06666666666 0.0
11.7 2.93333333333 0.0
11.7 2.8 0.0
11.7 2.66666666666 0.0
11.7 2.53333333333 0.0
11.7 2.4 0.0
11.7 2.26666666666 0.0
11.7 2.13333333333 0.0
11.7 2.0 0.0
11.7 1.86666666666 0.0
11.7 1.73333333333 0.0
11.7 1.6 0.0
11.7 1.46666666666 0.0
11.7 1.33333333333 0.0
11.7 1.2 0.0
11.7 1.06666666666 0.0
11.7 0.933333333331 0.0
11.7 0.799999999998 0.0
11.7 0.666666666665 0.0
11.7 0.533333333332 0.0
11.7 0.399999999999 0.0
11.7 0.266666666666 0.0
11.7 0.133333333333 0.0
11.6 3.86666666667 0.0
11.6 3.73333333333 0.0
11.6 3.6 0.0
11.6 3.46666666667 0.0
11.6 3.33333333333 0.0
11.6 3.2 0.0
11.6 3.06666666666 0.0
11.6 2.93333333333 0.0
11.6 2.8 0.0
11.6 2.66666666666 0.0
11.6 2.53333333333 0.0
11.6 2.4 0.0
11.6 2.26666666666 0.0
11.6 2.13333333333 0.0
11.6 2.0 0.0
11.6 1.86666666666 0.0
11.6 1.73333333333 0.0
11.6 1.6 0.0
11.6 1.46666666666 0.0
11.6 1.33333333333 0.0
11.6 1.2 0.0
11.6 1.06666666666 0.0
11.6 0.933333333331 0.0
11.6 0.799999999998 0.0
11.6 0.666666666665 0.0
11.6 0.533333333332 0.0
11.6 0.399999999999 0.0
11.6 0.266666666666 0.0
11.6 0.133333333333 0.0
11.5 3.86666666667 0.0
11.5 3.73333333333 0.0
11.5 3.6 0.0
11.5 3.46666666667 0.0
11.5 3.33333333333 0.0
11.5 3.2 0.0
11.5 3.06666666666 0.0
11.5 2.93333333333 0.0
11.5 2.8 0.0
11.5 2.66666666666 0.0
11.5 2.53333333333 0.0
11.5 2.4 0.0
11.5 2.26666666666 0.0
11.5 2.13333333333 0.0
11.5 2.0 0.0
11.5 1.86666666666 0.0
11.5 1.73333333333 0.0
11.5 1.6 0.0
11.5 1.46666666666 0.0
11.5 1.33333333333 0.0
11.5 1.2 0.0
11.5 1.06666666666 0.0
11.5 0.933333333331 0.0
11.5 0.799999999998 0.0
11.5 0.666666666665 0.0
11.5 0.533333333332 0.0
11.5 0.399999999999 0.0
11.5 0.266666666666 0.0
11.5 0.133333333333 0.0
11.4 3.86666666667 0.0
11.4 3.73333333333 0.0
11.4 3.6 0.0
11.4 3.46666666667 0.0
11.4 3.33333333333 0.0
11.4 3.2 0.0
11.4 3.06666666666 0.0
11.4 2.93333333333 0.0
11.4 2.8 0.0
11.4 2.66666666666 0.0
11.4 2.53333333333 0.0
11.4 2.4 0.0
11.4 2.26666666666 0.0
11.4 2.13333333333 0.0
11.4 2.0 0.0
11.4 1.86666666666 0.0
11.4 1.73333333333 0.0
11.4 1.6 0.0
11.4 1.46666666666 0.0
11.4 1.33333333333 0.0
11.4 1.2 0.0
11.4 1.06666666666 0.0
11.4 0.933333333331 0.0
11.4 0.799999999998 0.0
11.4 0.666666666665 0.0
11.4 0.533333333333 0.0
11.4 0.399999999999 0.0
11.4 0.266666666666 0.0
11.4 0.133333333333 0.0
11.3 3.86666666667 0.0
11.3 3.73333333333 0.0
11.3 3.6 0.0
11.3 3.46666666667 0.0
11.3 3.33333333333 0.0
11.3 3.2 0.0
11.3 3.06666666666 0.0
11.3 2.93333333333 0.0
11.3 2.8 0.0
[...]
POINT_DATA 3751
VECTORS Displacement float
0.0 0.0 0
0.0 0.0 0
-0.00157314750925 0.000631431332293 0
-0.0537657146342 -0.215652757333 0
0.0 0.0 0
0.0 0.0 0
0.0 0.0 0
0.0 0.0 0
0.0 0.0 0
0.0 0.0 0
0.0 0.0 0
0.0 0.0 0
0.0 0.0 0
0.0 0.0 0
0.0 0.0 0
0.0 0.0 0
0.0 0.0 0
0.0 0.0 0
0.0 0.0 0
0.0 0.0 0
0.0 0.0 0
0.0 0.0 0
0.0 0.0 0
0.0 0.0 0
0.0 0.0 0
0.0 0.0 0
0.0 0.0 0
0.0 0.0 0
0.0 0.0 0
0.0 0.0 0
0.0 0.0 0
0.0 0.0 0
0.0 0.0 0
0.0 0.0 0
0.0 0.0 0
0.0 0.0 0
0.0 0.0 0
0.0 0.0 0
0.0 0.0 0
0.0 0.0 0
0.0 0.0 0
0.0 0.0 0
0.0 0.0 0
0.0 0.0 0
0.0 0.0 0
0.0 0.0 0
0.0 0.0 0
0.0 0.0 0
0.0 0.0 0
0.0 0.0 0
0.0 0.0 0
0.0 0.0 0
0.0 0.0 0
0.0 0.0 0
0.0 0.0 0
0.0 0.0 0
0.0 0.0 0
0.0 0.0 0
0.0 0.0 0
0.0 0.0 0
0.0 0.0 0
0.0 0.0 0
0.0 0.0 0
0.0 0.0 0
0.0 0.0 0
0.0 0.0 0
0.0 0.0 0
0.0 0.0 0
0.0 0.0 0
0.0 0.0 0
0.0 0.0 0
0.0 0.0 0
0.0 0.0 0
0.0 0.0 0
0.0 0.0 0
0.0 0.0 0
0.0 0.0 0
0.0 0.0 0
0.0 0.0 0
0.0 0.0 0
0.0 0.0 0
0.0 0.0 0
0.0 0.0 0
0.0 0.0 0
0.0 0.0 0
0.0 0.0 0
0.0 0.0 0
0.0 0.0 0
0.0 0.0 0
0.0 0.0 0
0.0 0.0 0
0.0 0.0 0
0.0 0.0 0
0.0 0.0 0
0.0 0.0 0
0.0 0.0 0
0.0 0.0 0
0.0 0.0 0
0.0 0.0 0
0.0 0.0 0
0.0 0.0 0
0.0 0.0 0
0.0 0.0 0
0.0 0.0 0
0.0 0.0 0
0.0 0.0 0
0.0 0.0 0
0.0 0.0 0
0.0 0.0 0
0.0 0.0 0
0.0 0.0 0
0.0 0.0 0
0.0 0.0 0
0.0 0.0 0
0.0 0.0 0
0.0 0.0 0
0.0 0.0 0
0.0 0.0 0
0.0 0.0 0
0.0 0.0 0
0.0 0.0 0
0.0 0.0 0
0.0 0.0 0
-0.000163652833934 0.000150711153854 0
-0.000275476602737 0.000248895202302 0
-0.000380768771272 0.000323634610411 0
-0.000478271000082 0.000385460108781 0
-0.000570456494316 0.000437452457791 0
-0.00065778789423 0.000481647979462 0
-0.000740621764824 0.000519308411417 0
-0.000819128168891 0.000551342898267 0
-0.000893410397984 0.000578429374229 0
-0.000963525905322 0.000601098745637 0
-0.00102950365252 0.000619782667258 0
-0.0010913526172 0.000634846317836 0
-0.00114906828584 0.000646611557013 0
-0.00120263835832 0.000655374230316 0
-0.00125204866928 0.00066141741433 0
-0.00129728972867 0.000665021634269 0
-0.00133836408108 0.000666472604568 0
-0.0013752945471 0.000666066768597 0
-0.00140813333326 0.000664114730239 0
-0.00143697194051 0.000660942532006 0
-0.00146195174992 0.000656890606517 0
-0.00148327509733 0.000652310080792 0
-0.00150121653619 0.000647555908567 0
-0.00151613376984 0.000642975986927 0
-0.0015284772631 0.000638894869747 0
-0.00153879647973 0.000635589722733 0
-0.00154773787493 0.000633254275915 0
-0.0015560221264 0.000631943325091 0
-0.00156435906445 0.000631486836975 0
-0.00157313723502 0.000624719998024 0
-0.0015729724415 0.000617730135294 0
-0.00157242071312 0.000610538232485 0
-0.00157133736932 0.000603403190133 0
-0.00156966480189 0.00059663529781 0
-0.00156741151379 0.000590548945313 0
-0.00156463386721 0.000585444078238 0
-0.00156142281304 0.000581599126976 0
-0.00155789468584 0.000579268976306 0
-0.00155418487447 0.000578685182302 0
-0.00155044348619 0.000580057178584 0
-0.00154683240748 0.000583573870622 0
-0.00154352336538 0.000589405320735 0
-0.0015406967239 0.000597704372829 0
-0.00153854083419 0.000608608139352 0
-0.00153725181161 0.000622239310727 0
-0.00153703364918 0.000638707267328 0
-0.00153809860108 0.00065810898441 0
-0.00154066778658 0.000680529725847 0
-0.00154497197634 0.000706043525201 0
-0.00155125253163 0.000734713453921 0
-0.0015597624727 0.00076659167686 0
-0.00157076765733 0.000801719295314 0
-0.00158454805398 0.00084012597749 0
-0.00160139909634 0.000881829375858 0
-0.00162163310844 0.00092683433032 0
-0.00164558079088 0.000975131855485 0
-0.00167359276001 0.0010266979097 0
-0.00170604113291 0.00108149194269 0
-0.00174332115178 0.00113945521806 0
-0.00178585284164 0.00120050890586 0
-0.0018340826959 0.00126455193992 0
-0.00188848538426 0.00133145863365 0
-0.00194956547755 0.00140107604712 0
-0.00201785918391 0.00147322109775 0
-0.00209393609057 0.00154767740561 0
-0.00217840090487 0.00162419186411 0
-0.0022718951881 0.00170247092561 0
-0.00237509907452 0.001782176591 0
-0.00248873296793 0.00186292209151 0
-0.00261355920674 0.00194426725027 0
-0.00275038368805 0.00202571351042 0
-0.00290005744011 0.00210669861612 0
-0.00306347813151 0.00218659093186 0
-0.00324159150441 0.00226468338509 0
-0.00343539271795 0.00234018701638 0
-0.0036459275867 0.00241222412084 0
-0.00387429369782 0.00247982096366 0
-0.00412164138925 0.00254190005201 0
-0.00438917456981 0.0025972719449 0
-0.00467815136084 0.00264462658128 0
-0.00498988453733 0.00268252410621 0
-0.00532574174524 0.00270938517326 0
-0.00568714547004 0.00272348070012 0
-0.00607557272987 0.00272292105269 0
-0.00649255446543 0.00270564463083 0
-0.00693967459665 0.00266940582645 0
-0.00741856871488 0.00261176232159 0
-0.00793092237735 0.00253006169049 0
-0.00847846896893 0.00242142726499 0
-0.00906298709434 0.00228274321727 0
-0.00968629746177 0.00211063880688 0
-0.0103502592168 0.00190147173117 0
-0.0110567656832 0.00165131050785 0
-0.0118077394633 0.00135591580643 0
-0.0126051268504 0.00101072063037 0
-0.0134508914974 0.000610809233695 0
-0.0143470072864 0.00015089463401 0
-0.0152954503351 -0.000374705443055 0
-0.0162981900719 -0.000972094385159 0
-0.0173571793008 -0.00164782451733 0
-0.0184743431726 -0.00240892721399 0
-0.0196515669598 -0.0032629456433 0
-0.0208906825235 -0.00421797056054 0
-0.0221934533377 -0.00528267965656 0
-0.0235615579124 -0.00646638107717 0
-0.0249965714258 -0.00777906186593 0
-0.0264999453361 -0.00923144225244 0
-0.0280729846895 -0.0108350369213 0
-0.0297168227768 -0.012602224664 0
-0.0314323927005 -0.0145463281574 0
-0.0332203953046 -0.0166817060431 0
-0.0350812627644 -0.0190238600426 0
-0.0370151169405 -0.0215895605677 0
-0.0390217213316 -0.0243969952306 0
-0.041100425105 -0.0274659459195 0
-0.0432500971984 -0.0308180017817 0
-0.0454690478098 -0.0344768177371 0
-0.0477549336577 -0.0384684312652 0
-0.0501046420604 -0.0428216545659 0
-0.0525141469569 -0.0475685653471 0
-0.0549783271666 -0.0527451283582 0
-0.0574907329244 -0.0583919928001 0
-0.0600432801591 -0.0645555302657 0
-0.0626258415399 -0.0712892078697 0
-0.0652256861125 -0.0786554386511 0
-0.0678266897916 -0.0867281286661 0
-0.0704081854363 -0.0955962709356 0
-0.0729432178534 -0.105369166701 0
-0.0753957532785 -0.116184278767 0
-0.0777159020571 -0.128219545455 0
-0.0798309833134 -0.141713650465 0
-0.0816269473454 -0.157001415449 0
-0.0829046574157 -0.174578973933 0
-0.0832664140209 -0.195238147738 0
-0.0817714137908 -0.220316512383 0
-0.0759664410609 -0.253072513672 0
-0.0649824700545 -0.300841958575 0
-0.0587595983937 -0.337207854207 0
-0.0570573352589 -0.362081945434 0
-0.0573321896357 -0.374480327332 0
-0.0555938287928 -0.380910537932 0
-0.0558188148638 -0.367371657324 0
-0.0546026261813 -0.34175552585 0
-0.0502107218366 -0.303718860875 0
-0.0430034484048 -0.252117241313 0
-0.0487100029427 -0.246410252923 0
-0.0522570214773 -0.235375860975 0
-0.0535453797495 -0.225779253608 0
-0.0679473804958 -0.216228947487 0
-0.0814460640602 -0.218331001489 0
-0.0912587406546 -0.221381922779 0
-0.0963418337091 -0.22363263073 0
-0.0973684386537 -0.223890430764 0
-0.095543208531 -0.221800629352 0
-0.0919546190056 -0.21754649191 0
-0.0873992060555 -0.211500731629 0
-0.0824173233791 -0.204062648042 0
-0.0773568143489 -0.195590019539 0
-0.0724317817729 -0.186379459171 0
-0.0677663702865 -0.176666843676 0
-0.0634253969274 -0.166635234758 0
-0.0594349443888 -0.156424532456 0
-0.0557958775116 -0.146140544934 0
-0.0524924981966 -0.135862683082 0
-0.0494978885901 -0.125650155989 0
-0.0467769704954 -0.115546797094 0
-0.0442879284118 -0.105584717362 0
-0.0419823614394 -0.0957869629497 0
-0.0398043052607 -0.0861692905374 0
-0.0376880311342 -0.0767410802299 0
-0.0355543088828 -0.0675052109055 0
-0.0333040380175 -0.0584565682123 0
-0.0308087054755 -0.0495774317605 0
-0.0278871629338 -0.0408297738894 0
-0.0242904578912 -0.0321210308943 0
-0.0194887019679 -0.0232813854584 0
-0.0130739457574 -0.0134776333365 0
-0.00156437637344 0.000624791906003 0
-0.00155627259896 0.000625231529816 0
-0.00154828835589 0.000626235074859 0
-0.0015396445482 0.000627845140403 0
-0.00152957365572 0.000629994586957 0
-0.00151739796617 0.000632524544239 0
-0.00150254846969 0.000635210332351 0
-0.00148456355756 0.000637784425885 0
-0.00146308040203 0.000639954441688 0
-0.00143782355054 0.000641416515099 0
-0.00140859261255 0.000641864824504 0
-0.00137524988649 0.000640997925294 0
-0.00133770835504 0.000638522388813 0
-0.00129592028639 0.000634154094164 0
-0.00124986658329 0.000627617399694 0
-0.00119954696223 0.000618642315498 0
-0.00114497099204 0.000606959692726 0
-0.00108614995645 0.000592294319635 0
-0.00102308940343 0.000574355639662 0
-0.000955782077246 0.000552825534678 0
-0.000884200592964 0.00052734216332 0
-0.000808288702834 0.00049747801743 0
-0.000727948255883 0.000462708854275 0
-0.000643018474022 0.000422366871833 0
-0.000553225928676 0.000375565057877 0
-0.000458121752037 0.000321063760565 0
-0.000356681515671 0.00025699807661 0
-0.000247540181187 0.000180505864086 0
-0.000122672839876 8.64873935477e-05 0
-0.00156422668572 0.000617611051642 0
-0.00155638254912 0.000617794598996 0
-0.00154865780701 0.000618395298539 0
-0.00154022999775 0.000619358539248 0
-0.00153030966677 0.000620567314992 0
-0.00151820286869 0.000621856058298 0
-0.00150332892953 0.000623018581736 0
-0.001485218962 0.000623818599985 0
-0.0014635065934 0.000624000324858 0
-0.00143791576637 0.00062329759918 0
-0.00140824761784 0.000621441037092 0
-0.00137436734385 0.000618163092503 0
-0.00133619148883 0.000613201138819 0
-0.00129367589126 0.000606298679969 0
-0.00124680441458 0.000597204798184 0
-0.00119557852876 0.000585671905748 0
-0.00114000775166 0.000571451813623 0
-0.00108010088796 0.000554290056809 0
-0.00101585789582 0.00053391831528 0
-0.000947262023264 0.000510044625834 0
-0.000874271556217 0.0004823408751 0
-0.00079680980289 0.000450426784438 0
-0.000714751318554 0.000413849332213 0
-0.000627897536873 0.000372056430503 0
-0.000535942204409 0.000324367545127 0
-0.000438362910416 0.000269948096804 0
-0.000334436377908 0.000207938704448 0
-0.000222496002831 0.000137869740668 0
-0.000105072824984 6.60062458999e-05 0
-0.00156381536611 0.000610146343515 0
-0.00155629586809 0.000610042056472 0
-0.00154886528067 0.000610250078229 0
-0.00154064382964 0.000610659958631 0
-0.00153083283878 0.000611109004004 0
-0.00151873591322 0.000611409466652 0
-0.00150377105 0.000611353995994 0
-0.00148546894342 0.000610719512965 0
-0.00146346406087 0.000609272097769 0
-0.00143748248485 0.000606772122256 0
-0.00140732858775 0.00060297880397 0
-0.00137287155104 0.000597653715909 0
-0.00133403224461 0.000590563042506 0
-0.00129077074218 0.000581478514183 0
-0.00124307462642 0.000570177021998 0
-0.00119094816444 0.000556438943492 0
-0.00113440237643 0.000540045220988 0
-0.00107344595644 0.000520773239119 0
-0.00100807691611 0.000498391565963 0
-0.000938274698165 0.000472653686286 0
-0.000863992288888 0.000443291042661 0
-0.000785147685951 0.000410006247716 0
-0.000701613317709 0.000372468691152 0
-0.000613204211382 0.000330319391525 0
-0.000519659410499 0.000283201056921 0
-0.000420668315396 0.000230883035481 0
-0.000315913847866 0.000173578177961 0
-0.00020621812777 0.000113373357101 0
-9.6771924836e-05 5.4465870964e-05 0
-0.00156311157813 0.000602709888999 0
-0.00155602957392 0.000602343594894 0
-0.00154896136277 0.000602225374236 0
-0.00154097690176 0.000602193234316 0
-0.00153127163709 0.00060204734668 0
-0.00151915580268 0.000601574998493 0
-0.00150405523791 0.000600558272419 0
-0.00148550778283 0.000598776068754 0
-0.00146315451336 0.00059600583476 0
-0.00143672797028 0.000592025788812 0
-0.00140603903242 0.000586617271382 0
-0.00137096344244 0.000579566767242 0
-0.00133142856468 0.000570667289356 0
-0.00128740071417 0.000559718960319 0
-0.00123887326134 0.000546528735065 0
-0.00118585563935 0.000530909288343 0
-0.00112836332896 0.000512677161715 0
-0.00106640885645 0.000491650353096 0
-0.000999993811446 0.000467645676594 0
-0.000929101880487 0.000440476495204 0
-0.000853692983249 0.000409951998463 0
-0.000773698839113 0.000375880381978 0
-0.000689021729916 0.000338081087263 0
-0.000599540299899 0.000296416763034 0
-0.000505143422672 0.000250872753989 0
-0.00040582742928 0.000201727096622 0
-0.000302089080463 0.000149969971494 0
-0.000195954433614 9.76537990137e-05 0
-9.25319042921e-05 4.7388573133e-05 0
-0.00156211578449 0.00059564555234 0
-0.00155562886844 0.000595062475626 0
-0.00154901756477 0.000594701665833 0
-0.00154132417297 0.000594345380901 0
-0.00153174469517 0.00059375786641 0
-0.00151960218327 0.000592701319364 0
-0.00150433767965 0.000590943069947 0
-0.00148550324797 0.00058825746027 0
-0.00146275273806 0.000584426248791 0
-0.00143583030815 0.000579239105329 0
-0.0014045576484 0.000572494380862 0
-0.00136882073373 0.00056399992514 0
-0.00132855668733 0.000553573697612 0
-0.00128374114311 0.000541044003747 0
-0.00123437637224 0.000526249294178 0
-0.00118048036767 0.000509037569484 0
-0.00112207704633 0.000489265549383 0
-0.00105918772979 0.000466797919174 0
-0.000991824116198 0.00044150720761 0
-0.000919983116737 0.000413275270824 0
-0.000843644312422 0.000381998121287 0
-0.000762771808877 0.000347597315812 0
-0.000677324427811 0.000310043754063 0
-0.000587284933296 0.000269405276029 0
-0.000492730808961 0.000225934874101 0
-0.000394013440039 0.000180230378003 0
-0.000292156647079 0.000133410268817 0
-0.000189522741202 8.70793029765e-05 0
-9.03497186546e-05 4.26415089561e-05 0
-0.0015608566099 0.000589292431015 0
-0.00155515323864 0.000588547025482 0
-0.00154911510505 0.000588029857091 0
-0.0015417832157 0.000587464198121 0
-0.0015323645818 0.000586576439168 0
-0.00152020143764 0.000585102587689 0
-0.001504756297 0.000582792870298 0
-0.00148560184759 0.000579413164207 0
-0.00146241078852 0.00057474487641 0
-0.00143494440626 0.000568584540236 0
-0.00140304011964 0.00056074358878 0
-0.00136659855083 0.000551048308449 0
-0.00132557063896 0.000539339841495 0
-0.00127994520506 0.000525474125772 0
-0.00122973728835 0.000509321740754 0
-0.0011749775233 0.000490767737787 0
-0.00111570282007 0.000469711669932 0
-0.00105194865932 0.000446068224882 0
-0.000983743453245 0.000419769147524 0
-0.000911105735039 0.000390767590121 0
-0.000834045611701 0.000359046773381 0
-0.000752573286813 0.000324636017688 0
-0.000666720533734 0.000287639053999 0
-0.0005765867407 0.000248281083176 0
-0.000482433969996 0.0002069813376 0
-0.000384870331747 0.000164436678583 0
-0.000285151842585 0.000121646380488 0
-0.000185526292196 7.9718704151e-05 0
-8.92899957121e-05 3.93269304801e-05 0
-0.00155938868594 0.000583969387191 0
-0.00155467370345 0.00058312294204 0
-0.00154934045272 0.000582534059135 0
-0.00154245220388 0.000581866766967 0
-0.00153323915855 0.00058080744463 0
-0.00152106999593 0.000579064138259 0
-0.00150543476214 0.000576368012557 0
-0.00148593272848 0.000572473835004 0
-0.00146226131258 0.000567159464856 0
-0.00143420453088 0.000560224984749 0
-0.00140162076954 0.000551491893603 0
-0.00136443017453 0.000540802489787 0
-0.00132260208238 0.000528019427653 0
-0.00127614289441 0.000513025410621 0
-0.00122508475584 0.000495723037347 0
-0.00116947538126 0.000476034914795 0
-0.00110936939149 0.000453904287465 0
-0.00104482162077 0.000429296617993 0
-0.000975883061135 0.000402202817038 0
-0.000902600525851 0.000372645197097 0
-0.000825021900318 0.000340687739942 0
-0.000743210343612 0.000306452893594 0
-0.000657273421928 0.000270147428239 0
-0.000567417651277 0.000232098854587 0
-0.000474044031093 0.000192796752943 0
-0.00037789862038 0.000152914240249 0
-0.000280263398306 0.000113250977736 0
-0.000183091965707 7.45208704782e-05 0
-8.88752905828e-05 3.69692254631e-05 0
-0.00155778956541 0.000579969598774 0
-0.00155427259949 0.000579089621563 0
-0.00154978450455 0.00057851185684 0
-0.00154342933838 0.000577843132123 0
-0.00153447233322 0.000576728593137 0
-0.00152231637881 0.000574846577317 0
-0.0015064852346 0.00057190737191 0
-0.00148661054915 0.000567652566624 0
-0.00146242016916 0.000561854109893 0
-0.00143372643083 0.000554313144604 0
-0.00140041406973 0.000544858861546 0
-0.00136242788635 0.000533347515483 0
-0.00131976050123 0.000519661656354 0
-0.00127244058373 0.000503709601647 0
-0.0012205219428 0.000485425209551 0
-0.00116407387959 0.00046476809035 0
-0.00110317325389 0.000441724508129 0
-0.00103789884022 0.000416309377365 0
-0.000968328791242 0.000388569953351 0
-0.000894542461821 0.000358592042493 0
-0.000816628598721 0.000326509763631 0
-0.000734703112738 0.000292519862704 0
-0.000648941436982 0.000256900794583 0
-0.000559632341139 0.000220033788529 0
-0.000467259674905 0.000182415745049 0
-0.000372609494916 0.000144640565344 0
-0.000276872787354 0.000107312598411 0
-0.000181664870312 7.08629767584e-05 0
-8.88377676809e-05 3.52963934645e-05 0
-0.00155615638211 0.000577559602825 0
-0.0015540435087 0.000576719502484 0
-0.00155054303749 0.000576234779839 0
-0.00154481330143 0.000575658314976 0
-0.00153616493531 0.000574593835974 0
-0.00152404270909 0.000572688647312 0
-0.0015080103551 0.000569630557122 0
-0.00148773765582 0.00056514623506 0
-0.00146298851284 0.000558999829207 0
-0.00143360913491 0.000550991565192 0
-0.00139951603481 0.000540956377583 0
-0.0013606839113 0.000528762674102 0
-0.00131713369496 0.000514311308199 0
-0.00126892112288 0.00049753482326 0
-0.0012161262452 0.000478397054396 0
-0.00115884430362 0.000456893229596 0
-0.00109717849245 0.000433050793964 0
-0.0010312352473 0.000406931280494 0
-0.000961122941113 0.000378633651474 0
-0.000886955250154 0.000348299593173 0
-0.000808861028451 0.000316121151545 0
-0.000727003294375 0.000282350600154 0
-0.000641610654631 0.000247311004886 0
-0.000553024297383 0.000211402783761 0
-0.000461760395001 0.000175095982006 0
-0.000368577721979 0.000138891300026 0
-0.000274520459597 0.000103230996273 0
-0.00018088071796 6.8355217541e-05 0
-8.90156805457e-05 3.41393272058e-05 0
-0.00155460280534 0.000576980322071 0
-0.00155409089936 0.00057625908799 0
-0.00155171737499 0.000575949453519 0
-0.00154670413637 0.000575553939669 0
-0.00153841575848 0.000574635415985 0
-0.0015263460328 0.000572809333854 0
-0.00151010483725 0.000569739710102 0
-0.00148940581685 0.000565136804121 0
-0.00146405450908 0.000558755371943 0
-0.00143393651179 0.00055039306559 0
-0.00139900553853 0.000539888893734 0
-0.00135927145404 0.000527121784412 0
-0.00131478854943 0.00051200931814 0
-0.00126564441023 0.000494506706313 0
-0.00121194978564 0.000474606107105 0
-0.00115382991903 0.000452336405189 0
-0.00109141787632 0.000427763626632 0
-0.00102485053228 0.000400992201208 0
-0.000954268069589 0.000372167291533 0
-0.000879818121457 0.000341478320671 0
-0.000801666029268 0.000309163527844 0
-0.000720012971386 0.000275514646704 0
-0.000635123586398 0.000240879309417 0
-0.000547363330057 0.000205656241199 0
-0.000457241734479 0.000170275000838 0
-0.000365449408656 0.000135149751192 0
-0.000272864213882 0.000100599533363 0
-0.000180491096227 6.67412030703e-05 0
-8.93045313869e-05 3.33866138176e-05 0
-0.00155325651276 0.000578448897417 0
-0.0015545295636 0.000577930771547 0
-0.00155341491838 0.000577879262782 0
-0.00154920418082 0.000577749889513 0
-0.00154132264974 0.000577065600083 0
-0.00152931954866 0.000575409582224 0
-0.00151285683888 0.00057242104311 0
-0.00149169768603 0.000567792567877 0
-0.00146569480576 0.000561268146255 0
-0.00143477866774 0.00055264141908 0
-0.00139894558201 0.000541753992095 0
-0.00135824581993 0.000528493808862 0
-0.00131277203746 0.000512793630657 0
-0.00126264834985 0.000494629691636 0
-0.00120802046455 0.000474020610785 0
-0.0011490473335 0.000451026656556 0
-0.00108589485478 0.00042574947007 0
-0.00101873225159 0.000398332340628 0
-0.000947731888198 0.000368961058818 0
-0.00087307343255 0.00033786518739 0
-0.000794953382865 0.000305319188997 0
-0.000713600873749 0.00027164209412 0
-0.000629300019233 0.000237193152429 0
-0.00054241723452 0.000202359240811 0
-0.000453428263626 0.000167528290931 0
-0.000362933698472 0.000133043199125 0
-0.000271644938373 9.91350792711e-05 0
-0.000180319401452 6.58453583861e-05 0
-8.96323911718e-05 3.29613136028e-05 0