# vtk DataFile Version 2.0
Generated with Solid Solver
ASCII
DATASET UNSTRUCTURED_GRID
POINTS 3751 float 
0.0 0.0 0.0
12.0 0.0 0.0
12.0 4.0 0.0
0.0 4.0 0.0
0.0999999999996 0.0 0.0
0.199999999999 0.0 0.0
0.299999999999 0.0 0.0
0.399999999998 0.0 0.0
0.499999999998 0.0 0.0
0.599999999997 0.0 0.0
0.699999999997 0.0 0.0
0.799999999996 0.0 0.0
0.899999999996 0.0 0.0
0.999999999996 0.0 0.0
1.1 0.0 0.0
1.2 0.0 0.0
1.29999999999 0.0 0.0
1.39999999999 0.0 0.0
1.49999999999 0.0 0.0
1.59999999999 0.0 0.0
1.69999999999 0.0 0.0
1.79999999999 0.0 0.0
1.89999999999 0.0 0.0
1.99999999999 0.0 0.0
2.09999999999 0.0 0.0
2.19999999999 0.0 0.0
2.29999999999 0.0 0.0
2.39999999999 0.0 0.0
2.49999999999 0.0 0.0
2.59999999999 0.0 0.0
2.69999999999 0.0 0.0
2.79999999999 0.0 0.0
2.89999999999 0.0 0.0
2.99999999999 0.0 0.0
3.09999999999 0.0 0.0
3.19999999999 0.0 0.0
3.29999999999 0.0 0.0
3.39999999999 0.0 0.0
3.49999999999 0.0 0.0
3.59999999999 0.0 0.0
3.69999999999 0.0 0.0
3.79999999998 0.0 0.0
3.89999999998 0.0 0.0
3.99999999998 0.0 0.0
4.09999999998 0.0 0.0
4.19999999998 0.0 0.0
4.29999999998 0.0 0.0
4.39999999998 0.0 0.0
4.49999999998 0.0 0.0
4.59999999998 0.0 0.0
4.69999999998 0.0 0.0
4.79999999998 0.0 0.0
4.89999999998 0.0 0.0
4.99999999998 0.0 0.0
5.09999999998 0.0 0.0
5.19999999998 0.0 0.0
5.29999999998 0.0 0.0
5.39999999998 0.0 0.0
5.49999999998 0.0 0.0
5.59999999998 0.0 0.0
5.69999999998 0.0 0.0
5.79999999998 0.0 0.0
5.89999999998 0.0 0.0
5.99999999998 0.0 0.0
6.09999999998 0.0 0.0
6.19999999998 0.0 0.0
6.29999999998 0.0 0.0
6.39999999998 0.0 0.0
6.49999999998 0.0 0.0
6.59999999998 0.0 0.0
6.69999999998 0.0 0.0
6.79999999998 0.0 0.0
6.89999999998 0.0 0.0
6.99999999998 0.0 0.0
7.09999999998 0.0 0.0
7.19999999998 0.0 0.0
7.29999999998 0.0 0.0
7.39999999998 0.0 0.0
7.49999999998 0.0 0.0
7.59999999998 0.0 0.0
7.69999999998 0.0 0.0
7.79999999998 0.0 0.0
7.89999999998 0.0 0.0
7.99999999998 0.0 0.0
8.09999999999 0.0 0.0
8.19999999999 0.0 0.0
8.29999999999 0.0 0.0
8.39999999999 0.0 0.0
8.49999999999 0.0 0.0
8.59999999999 0.0 0.0
8.69999999999 0.0 0.0
8.79999999999 0.0 0.0
8.89999999999 0.0 0.0
8.99999999999 0.0 0.0
9.09999999999 0.0 0.0
9.19999999999 0.0 0.0
9.29999999999 0.0 0.0
9.39999999999 0.0 0.0
9.49999999999 0.0 0.0
9.59999999999 0.0 0.0
9.69999999999 0.0 0.0
9.79999999999 0.0 0.0
9.89999999999 0.0 0.0
9.99999999999 0.0 0.0
10.1 0.0 0.0
10.2 0.0 0.0
10.3 0.0 0.0
10.4 0.0 0.0
10.5 0.0 0.0
10.6 0.0 0.0
10.7 0.0 0.0
10.8 0.0 0.0
10.9 0.0 0.0
11.0 0.0 0.0
11.1 0.0 0.0
11.2 0.0 0.0
11.3 0.0 0.0
11.4 0.0 0.0
11.5 0.0 0.0
11.6 0.0 0.0
11.7 0.0 0.0
11.8 0.0 0.0
11.9 0.0 0.0
12.0 0.133333333333 0.0
12.0 0.266666666666 0.0
12.0 0.399999999999 0.0
12.0 0.533333333332 0.0
12.0 0.666666666665 0.0
12.0 0.799999999998 0.0
12.0 0.933333333331 0.0
12.0 1.06666666666 0.0
12.0 1.2 0.0
12.0 1.33333333333 0.0
12.0 1.46666666666 0.0
12.0 1.6 0.0
12.0 1.73333333333 0.0
12.0 1.86666666666 0.0
12.0 1.99999999999 0.0
12.0 2.13333333333 0.0
12.0 2.26666666666 0.0
12.0 2.4 0.0
12.0 2.53333333333 0.0
12.0 2.66666666666 0.0
12.0 2.8 0.0
12.0 2.93333333333 0.0
12.0 3.06666666666 0.0
12.0 3.2 0.0
12.0 3.33333333333 0.0
12.0 3.46666666667 0.0
12.0 3.6 0.0
12.0 3.73333333333 0.0
12.0 3.86666666667 0.0
11.9 4.0 0.0
11.8 4.0 0.0
11.7 4.0 0.0
11.6 4.0 0.0
11.5 4.0 0.0
11.4 4.0 0.0
11.3 4.0 0.0
11.2 4.0 0.0
11.1 4.0 0.0
11.0 4.0 0.0
10.9 4.0 0.0
10.8 4.0 0.0
10.7 4.0 0.0
10.6 4.0 0.0
10.5 4.0 0.0
10.4 4.0 0.0
10.3 4.0 0.0
10.2 4.0 0.0
10.1 4.0 0.0
10.0 4.0 0.0
9.90000000001 4.0 0.0
9.80000000001 4.0 0.0
9.70000000001 4.0 0.0
9.60000000001 4.0 0.0
9.50000000001 4.0 0.0
9.40000000001 4.0 0.0
9.30000000001 4.0 0.0
9.20000000001 4.0 0.0
9.10000000001 4.0 0.0
9.00000000001 4.0 0.0
8.90000000001 4.0 0.0
8.80000000001 4.0 0.0
8.70000000001 4.0 0.0
8.60000000001 4.0 0.0
8.50000000001 4.0 0.0
8.40000000001 4.0 0.0
8.30000000001 4.0 0.0
8.20000000001 4.0 0.0
8.10000000001 4.0 0.0
8.00000000001 4.0 0.0
7.90000000001 4.0 0.0
7.80000000001 4.0 0.0
7.70000000001 4.0 0.0
7.60000000001 4.0 0.0
7.50000000001 4.0 0.0
7.40000000001 4.0 0.0
7.30000000001 4.0 0.0
7.20000000001 4.0 0.0
7.10000000001 4.0 0.0
7.00000000001 4.0 0.0
6.90000000001 4.0 0.0
6.80000000001 4.0 0.0
6.70000000001 4.0 0.0
6.60000000001 4.0 0.0
6.50000000001 4.0 0.0
6.40000000001 4.0 0.0
6.30000000002 4.0 0.0
6.20000000002 4.0 0.0
6.10000000002 4.0 0.0
6.00000000002 4.0 0.0
5.90000000002 4.0 0.0
5.80000000002 4.0 0.0
5.70000000002 4.0 0.0
5.60000000002 4.0 0.0
5.50000000002 4.0 0.0
5.40000000002 4.0 0.0
5.30000000001 4.0 0.0
5.20000000001 4.0 0.0
5.10000000001 4.0 0.0
5.00000000001 4.0 0.0
4.90000000001 4.0 0.0
4.80000000001 4.0 0.0
4.70000000001 4.0 0.0
4.60000000001 4.0 0.0
4.50000000001 4.0 0.0
4.40000000001 4.0 0.0
4.30000000001 4.0 0.0
4.20000000001 4.0 0.0
4.10000000001 4.0 0.0
4.00000000001 4.0 0.0
3.90000000001 4.0 0.0
3.80000000001 4.0 0.0
3.70000000001 4.0 0.0
3.60000000001 4.0 0.0
3.50000000001 4.0 0.0
3.40000000001 4.0 0.0
3.30000000001 4.0 0.0
3.20000000001 4.0 0.0
3.10000000001 4.0 0.0
3.00000000001 4.0 0.0
2.90000000001 4.0 0.0
2.80000000001 4.0 0.0
2.70000000001 4.0 0.0
2.60000000001 4.0 0.0
2.50000000001 4.0 0.0
2.40000000001 4.0 0.0
2.30000000001 4.0 0.0
2.20000000001 4.0 0.0
2.10000000001 4.0 0.0
2.00000000001 4.0 0.0
1.90000000001 4.0 0.0
1.80000000001 4.0 0.0
1.7 4.0 0.0
1.6 4.0 0.0
1.5 4.0 0.0
1.4 4.0 0.0
1.3 4.0 0.0
1.2 4.0 0.0
1.1 4.0 0.0
1.0 4.0 0.0
0.900000000003 4.0 0.0
0.800000000002 4.0 0.0
0.700000000002 4.0 0.0
0.600000000002 4.0 0.0
0.500000000001 4.0 0.0
0.400000000001 4.0 0.0
0.300000000001 4.0 0.0
0.200000000001 4.0 0.0
0.1 4.0 0.0
0.0 3.86666666667 0.0
0.0 3.73333333333 0.0
0.0 3.6 0.0
0.0 3.46666666666 0.0
0.0 3.33333333333 0.0
0.0 3.2 0.0
0.0 3.06666666667 0.0
0.0 2.93333333334 0.0
0.0 2.8 0.0
0.0 2.66666666667 0.0
0.0 2.53333333334 0.0
0.0 2.40000000001 0.0
0.0 2.26666666667 0.0
0.0 2.13333333334 0.0
0.0 2.00000000001 0.0
0.0 1.86666666667 0.0
0.0 1.73333333334 0.0
0.0 1.60000000001 0.0
0.0 1.46666666667 0.0
0.0 1.33333333334 0.0
0.0 1.2 0.0
0.0 1.06666666667 0.0
0.0 0.933333333337 0.0
0.0 0.800000000003 0.0
0.0 0.666666666669 0.0
0.0 0.533333333336 0.0
0.0 0.400000000002 0.0
0.0 0.266666666668 0.0
0.0 0.133333333334 0.0
11.9 3.86666666667 0.0
11.9 3.73333333333 0.0
11.9 3.6 0.0
11.9 3.46666666667 0.0
11.9 3.33333333333 0.0
11.9 3.2 0.0
11.9 3.06666666666 0.0
11.9 2.93333333333 0.0
11.9 2.8 0.0
11.9 2.66666666666 0.0
11.9 2.53333333333 0.0
11.9 2.4 0.0
11.9 2.26666666666 0.0
11.9 2.13333333333 0.0
11.9 1.99999999999 0.0
11.9 1.86666666666 0.0
11.9 1.73333333333 0.0
11.9 1.6 0.0
11.9 1.46666666666 0.0
11.9 1.33333333333 0.0
11.9 1.2 0.0
11.9 1.06666666666 0.0
11.9 0.933333333331 0.0
11.9 0.799999999998 0.0
11.9 0.666666666665 0.0
11.9 0.533333333332 0.0
11.9 0.399999999999 0.0
11.9 0.266666666666 0.0
11.9 0.133333333333 0.0
11.8 3.86666666667 0.0
11.8 3.73333333333 0.0
11.8 3.6 0.0
11.8 3.46666666667 0.0
11.8 3.33333333333 0.0
11.8 3.2 0.0
11.8 3.06666666666 0.0
11.8 2.93333333333 0.0
11.8 2.8 0.0
11.8 2.66666666666 0.0
11.8 2.53333333333 0.0
11.8 2.4 0.0
11.8 2.26666666666 0.0
11.8 2.13333333333 0.0
11.8 1.99999999999 0.0
11.8 1.86666666666 0.0
11.8 1.73333333333 0.0
11.8 1.6 0.0
11.8 1.46666666666 0.0
11.8 1.33333333333 0.0
11.8 1.2 0.0
11.8 1.06666666666 0.0
11.8 0.933333333331 0.0
11.8 0.799999999998 0.0
11.8 0.666666666665 0.0
11.8 0.533333333332 0.0
11.8 0.399999999999 0.0
11.8 0.266666666666 0.0
11.8 0.133333333333 0.0
11.7 3.86666666667 0.0
11.7 3.73333333333 0.0
11.7 3.6 0.0
11.7 3.46666666667 0.0
11.7 3.33333333333 0.0
11.7 3.2 0.0
11.7 3.06666666666 0.0
11.7 2.93333333333 0.0
11.7 2.8 0.0
11.7 2.66666666666 0.0
11.7 2.53333333333 0.0
11.7 2.4 0.0
11.7 2.26666666666 0.0
11.7 2.13333333333 0.0
11.7 2.0 0.0
11.7 1.86666666666 0.0
11.7 1.73333333333 0.0
11.7 1.6 0.0
11.7 1.46666666666 0.0
11.7 1.33333333333 0.0
11.7 1.2 0.0
11.7 1.06666666666 0.0
11.7 0.933333333331 0.0
11.7 0.799999999998 0.0
11.7 0.666666666665 0.0
11.7 0.533333333332 0.0
11.7 0.399999999999 0.0
11.7 0.266666666666 0.0
11.7 0.133333333333 0.0
11.6 3.86666666667 0.0
11.6 3.73333333333 0.0
11.6 3.6 0.0
11.6 3.46666666667 0.0
11.6 3.33333333333 0.0
11.6 3.2 0.0
11.6 3.06666666666 0.0
11.6 2.93333333333 0.0
11.6 2.8 0.0
11.6 2.66666666666 0.0
11.6 2.53333333333 0.0
11.6 2.4 0.0
11.6 2.26666666666 0.0
11.6 2.13333333333 0.0
11.6 2.0 0.0
11.6 1.86666666666 0.0
11.6 1.73333333333 0.0
11.6 1.6 0.0
11.6 1.46666666666 0.0
11.6 1.33333333333 0.0
11.6 1.2 0.0
11.6 1.06666666666 0.0
11.6 0.933333333331 0.0
11.6 0.799999999998 0.0
11.6 0.666666666665 0.0
11.6 0.533333333332 0.0
11.6 0.399999999999 0.0
11.6 0.266666666666 0.0
11.6 0.133333333333 0.0
11.5 3.86666666667 0.0
11.5 3.73333333333 0.0
11.5 3.6 0.0
11.5 3.46666666667 0.0
11.5 3.33333333333 0.0
11.5 3.2 0.0
11.5 3.06666666666 0.0
11.5 2.93333333333 0.0
11.5 2.8 0.0
11.5 2.66666666666 0.0
11.5 2.53333333333 0.0
11.5 2.4 0.0
11.5 2.26666666666 0.0
11.5 2.13333333333 0.0
11.5 2.0 0.0
11.5 1.86666666666 0.0
11.5 1.73333333333 0.0
11.5 1.6 0.0
11.5 1.46666666666 0.0
11.5 1.33333333333 0.0
11.5 1.2 0.0
11.5 1.06666666666 0.0
11.5 0.933333333331 0.0
11.5 0.799999999998 0.0
11.5 0.666666666665 0.0
11.5 0.533333333332 0.0
11.5 0.399999999999 0.0
11.5 0.266666666666 0.0
11.5 0.133333333333 0.0
11.4 3.86666666667 0.0
11.4 3.73333333333 0.0
11.4 3.6 0.0
11.4 3.46666666667 0.0
11.4 3.33333333333 0.0
11.4 3.2 0.0
11.4 3.06666666666 0.0
11.4 2.93333333333 0.0
11.4 2.8 0.0
11.4 2.66666666666 0.0
11.4 2.53333333333 0.0
11.4 2.4 0.0
11.4 2.26666666666 0.0
11.4 2.13333333333 0.0
11.4 2.0 0.0
11.4 1.86666666666 0.0
11.4 1.73333333333 0.0
11.4 1.6 0.0
11.4 1.46666666666 0.0
11.4 1.33333333333 0.0
11.4 1.2 0.0
11.4 1.06666666666 0.0
11.4 0.933333333331 0.0
11.4 0.799999999998 0.0
11.4 0.666666666665 0.0
11.4 0.533333333333 0.0
11.4 0.399999999999 0.0
11.4 0.266666666666 0.0
11.4 0.133333333333 0.0
11.3 3.86666666667 0.0
11.3 3.73333333333 0.0
11.3 3.6 0.0
11.3 3.46666666667 0.0
11.3 3.33333333333 0.0
11.3 3.2 0.0
11.3 3.06666666666 0.0
11.3 2.93333333333 0.0
11.3 2.8 0.0
[...]
POINT_DATA 3751
VECTORS Displacement float
0.0 0.0 0
0.0 0.0 0
0.000232304901035 0.000129812296723 0
-0.0674244083695 -0.285724806504 0
0.0 0.0 0
0.0 0.0 0
0.0 0.0 0
0.0 0.0 0
0.0 0.0 0
0.0 0.0 0
0.0 0.0 0
0.0 0.0 0
0.0 0.0 0
0.0 0.0 0
0.0 0.0 0
0.0 0.0 0
0.0 0.0 0
0.0 0.0 0
0.0 0.0 0
0.0 0.0 0
0.0 0.0 0
0.0 0.0 0
0.0 0.0 0
0.0 0.0 0
0.0 0.0 0
0.0 0.0 0
0.0 0.0 0
0.0 0.0 0
0.0 0.0 0
0.0 0.0 0
0.0 0.0 0
0.0 0.0 0
0.0 0.0 0
0.0 0.0 0
0.0 0.0 0
0.0 0.0 0
0.0 0.0 0
0.0 0.0 0
0.0 0.0 0
0.0 0.0 0
0.0 0.0 0
0.0 0.0 0
0.0 0.0 0
0.0 0.0 0
0.0 0.0 0
0.0 0.0 0
0.0 0.0 0
0.0 0.0 0
0.0 0.0 0
0.0 0.0 0
0.0 0.0 0
0.0 0.0 0
0.0 0.0 0
0.0 0.0 0
0.0 0.0 0
0.0 0.0 0
0.0 0.0 0
0.0 0.0 0
0.0 0.0 0
0.0 0.0 0
0.0 0.0 0
0.0 0.0 0
0.0 0.0 0
0.0 0.0 0
0.0 0.0 0
0.0 0.0 0
0.0 0.0 0
0.0 0.0 0
0.0 0.0 0
0.0 0.0 0
0.0 0.0 0
0.0 0.0 0
0.0 0.0 0
0.0 0.0 0
0.0 0.0 0
0.0 0.0 0
0.0 0.0 0
0.0 0.0 0
0.0 0.0 0
0.0 0.0 0
0.0 0.0 0
0.0 0.0 0
0.0 0.0 0
0.0 0.0 0
0.0 0.0 0
0.0 0.0 0
0.0 0.0 0
0.0 0.0 0
0.0 0.0 0
0.0 0.0 0
0.0 0.0 0
0.0 0.0 0
0.0 0.0 0
0.0 0.0 0
0.0 0.0 0
0.0 0.0 0
0.0 0.0 0
0.0 0.0 0
0.0 0.0 0
0.0 0.0 0
0.0 0.0 0
0.0 0.0 0
0.0 0.0 0
0.0 0.0 0
0.0 0.0 0
0.0 0.0 0
0.0 0.0 0
0.0 0.0 0
0.0 0.0 0
0.0 0.0 0
0.0 0.0 0
0.0 0.0 0
0.0 0.0 0
0.0 0.0 0
0.0 0.0 0
0.0 0.0 0
0.0 0.0 0
0.0 0.0 0
0.0 0.0 0
0.0 0.0 0
0.0 0.0 0
0.0 0.0 0
0.0 0.0 0
-6.09106412385e-05 5.27921796347e-05 0
-0.000102012733164 8.45378255981e-05 0
-0.000138012749854 0.000106698634542 0
-0.000168241432281 0.000123698984579 0
-0.000193629658935 0.000137015785104 0
-0.000214481936328 0.000147603469002 0
-0.000231098861449 0.00015604594928 0
-0.000243721770862 0.000162736691974 0
-0.000252561353469 0.000167940359776 0
-0.000257796912519 0.000171836157051 0
-0.000259577956126 0.000174545454164 0
-0.00025802511828 0.000176152393306 0
-0.000253232282707 0.000176719870876 0
-0.000245270009235 0.000176302444902 0
-0.000234190390731 0.000174956868679 0
-0.000220033300265 0.000172750602601 0
-0.000202833933028 0.000169768438193 0
-0.000182631498808 0.000166117240507 0
-0.000159478881283 0.000161928727 0
-0.000133453037356 0.00015736013018 0
-0.000104665854432 0.000152592519851 0
-7.32751016917e-05 0.000147826471581 0
-3.94949758875e-05 0.000143274638498 0
-3.60549835407e-06 0.000139150578004 0
3.40404622275e-05 0.000135652837022 0
7.30147773486e-05 0.000132942700269 0
0.000112820990411 0.000131112896984 0
0.000152921677154 0.000130143085251 0
0.000192820269965 0.00012983857631 0
0.000232305857176 0.000159340171398 0
0.000232405006985 0.000188636583514 0
0.000232792631324 0.000217709091685 0
0.000233607414767 0.000246723439956 0
0.000234926223123 0.000275903138335 0
0.000236775267771 0.000305489893784 0
0.000239141611028 0.000335726745896 0
0.000241981904662 0.000366850627144 0
0.000245228479582 0.000399089232299 0
0.000248793457539 0.000432659891792 0
0.000252571457273 0.00046776937867 0
0.000256441305246 0.000504614122857 0
0.000260267030801 0.000543380564982 0
0.000263898335573 0.000584245509502 0
0.000267170666961 0.000627376402027 0
0.000269904985556 0.000672931489887 0
0.000271907289783 0.000721059842998 0
0.000272967942956 0.000771901221594 0
0.000272860835563 0.000825585782248 0
0.000271342407095 0.000882233615909 0
0.00026815054572 0.00094195411259 0
0.000263003379891 0.00100484514747 0
0.000255597973006 0.00107099208288 0
0.000245608930116 0.00114046658013 0
0.000232686924151 0.00121332521445 0
0.000216457148151 0.00128960788564 0
0.000196517699247 0.00136933601634 0
0.000172437899735 0.00145251052894 0
0.000143756560377 0.00153910959158 0
0.00010998019104 0.00162908612274 0
7.05811638755e-05 0.00172236504338 0
2.49958345343e-05 0.00181884026467 0
-2.73773727346e-05 0.00191837139873 0
-8.71799097542e-05 0.00202078017903 0
-0.000155095071921 0.00212584657646 0
-0.0002318499809 0.00223330459619 0
-0.000318217574101 0.00234283774011 0
-0.000415018591611 0.00245407411857 0
-0.000523123550332 0.00256658119491 0
-0.000643454693968 0.00267986014519 0
-0.000776987906399 0.0027933398154 0
-0.00092475457475 0.00290637025738 0
-0.00108784338714 0.00301821582441 0
-0.00126740204873 0.0031280478067 0
-0.00146463889833 0.00323493658624 0
-0.001680824406 0.00333784329027 0
-0.00191729253099 0.00343561092143 0
-0.00217544191722 0.00352695494234 0
-0.00245673690198 0.0036104532913 0
-0.0027627083119 0.00368453580507 0
-0.00309495401809 0.00374747302335 0
-0.00345513922075 0.00379736434865 0
-0.00384499643131 0.00383212553343 0
-0.00426632511846 0.00384947546471 0
-0.00472099098205 0.00384692221415 0
-0.00521092481699 0.0038217483187 0
-0.00573812092672 0.00377099525377 0
-0.00630463504382 0.00369144705671 0
-0.00691258171276 0.00357961305344 0
-0.00756413108712 0.00343170963471 0
-0.00826150509097 0.00324364102146 0
-0.00900697289108 0.00301097894906 0
-0.00980284562322 0.0027289411895 0
-0.010651470312 0.00239236881676 0
-0.0115552229199 0.00199570210416 0
-0.012516500455 0.00153295492243 0
-0.0135377120631 0.000997687482708 0
-0.0146212690205 0.000382977239045 0
-0.0157695735366 -0.000318612271152 0
-0.0169850062662 -0.0011150649143 0
-0.0182699124152 -0.00201494809461 0
-0.0196265863107 -0.00302745191938 0
-0.0210572542862 -0.00416243186041 0
-0.0225640557041 -0.00543045547426 0
-0.0241490219111 -0.00684285386545 0
-0.0258140528777 -0.00841177872562 0
-0.0275608912227 -0.0101502659677 0
-0.0293910932583 -0.0120723072047 0
-0.0313059966055 -0.0141929306136 0
-0.0333066838189 -0.0165282930898 0
-0.0353939413178 -0.0190957860627 0
-0.0375682127307 -0.0219141579382 0
-0.0398295455137 -0.0250036569002 0
-0.0421775293714 -0.028386198802 0
-0.0446112245652 -0.0320855661917 0
-0.0471290775934 -0.0361276462568 0
-0.0497288209009 -0.040540717817 0
-0.0524073521283 -0.0453558006778 0
-0.0551605867986 -0.0506070850513 0
-0.0579832760219 -0.0563324649034 0
-0.0608687774332 -0.0625742078404 0
-0.0638087625609 -0.0693798068462 0
-0.0667928361955 -0.0768030779705 0
-0.069808031392 -0.0849055965193 0
-0.0728381244759 -0.0937586085167 0
-0.0758626821453 -0.103445624972 0
-0.0788556961519 -0.114066023654 0
-0.0817835559389 -0.125740184353 0
-0.0846019015997 -0.138617046434 0
-0.087250448127 -0.15288564997 0
-0.0896438407266 -0.168793617177 0
-0.091653772169 -0.186677967189 0
-0.0930710120579 -0.207022037039 0
-0.0935075567029 -0.230549262855 0
-0.0921722897497 -0.258519448723 0
-0.0868951792025 -0.292556461737 0
-0.0734433969714 -0.343113987833 0
-0.0623426637704 -0.392299893093 0
-0.0573790625159 -0.430316175191 0
-0.0564735568525 -0.45601076764 0
-0.0549488507485 -0.476395493229 0
-0.0589146179741 -0.475730935237 0
-0.0637502978587 -0.462271921983 0
-0.0662859803806 -0.435174716538 0
-0.0644478879538 -0.394963137059 0
-0.0584586046921 -0.340984378662 0
-0.0624431393438 -0.325808018644 0
-0.0656771732156 -0.310710660959 0
-0.0671375525042 -0.298227238703 0
-0.0847497050485 -0.286434167213 0
-0.100431340809 -0.288705514999 0
-0.111230463942 -0.291461773906 0
-0.116465998157 -0.292765529021 0
-0.117156976446 -0.291507044978 0
-0.114712821333 -0.287471861242 0
-0.110339874406 -0.280950062929 0
-0.104914155409 -0.272394665063 0
-0.0990321812793 -0.262267489862 0
-0.0930816836862 -0.250976921432 0
-0.0873040487342 -0.238861048685 0
-0.0818408924205 -0.226189675702 0
-0.076766957107 -0.213173372966 0
-0.0721125350727 -0.199974111703 0
-0.0678783953479 -0.186715231471 0
-0.0640454662566 -0.173489946522 0
-0.060580871692 -0.160368251006 0
-0.0574413958677 -0.147402341759 0
-0.0545750583571 -0.134630749412 0
-0.0519211790407 -0.122081350437 0
-0.0494090617587 -0.109773361494 0
-0.0469551475043 -0.0977183086089 0
-0.0444582194537 -0.0859197230165 0
-0.0417912520194 -0.074371122902 0
-0.0387892025896 -0.0630500292823 0
-0.0352193680124 -0.0519080269457 0
-0.0307619260262 -0.0408269982699 0
-0.0247386337641 -0.0295897315676 0
-0.0166249548501 -0.01713299979 0
0.00019281398772 0.000159401029836 0
0.000152737517104 0.00015975365636 0
0.000112386481114 0.000160589779783 0
7.23114707823e-05 0.000161988011391 0
3.30874254723e-05 0.00016394420659 0
-4.76387025685e-06 0.000166383527659 0
-4.07988714387e-05 0.000169180587339 0
-7.46568585325e-05 0.000172178841091 0
-0.000106055670266 0.000175206714424 0
-0.000134783167385 0.000178090196502 0
-0.000160686590805 0.000180662198313 0
-0.000183660962081 0.000182769047337 0
-0.000203637218595 0.000184274449002 0
-0.000220570546876 0.000185061184909 0
-0.000234429252181 0.000185030762478 0
-0.000245184425674 0.000184101181688 0
-0.000252800616286 0.000182202936881 0
-0.000257227668235 0.000179273317059 0
-0.000258393835993 0.000175248994815 0
-0.000256200226196 0.000170056782385 0
-0.000250516508319 0.000163602250554 0
-0.000241177692487 0.000155755579734 0
-0.000227981238286 0.000146333430032 0
-0.000210683797624 0.000135074383182 0
-0.000188990846524 0.000121603177812 0
-0.000162547426985 0.000105373430229 0
-0.00013081988445 8.5561410961e-05 0
-9.32376182918e-05 6.09339652911e-05 0
-4.71201118799e-05 2.94829797527e-05 0
0.000192937312564 0.000188560850168 0
0.000152658286371 0.000188736562312 0
0.000112079510038 0.000189304938189 0
7.17924312104e-05 0.000190265603678 0
3.23915770339e-05 0.000191566796419 0
-5.58798987061e-06 0.000193119685593 0
-4.16941049248e-05 0.000194806242897 0
-7.55617550501e-05 0.000196488868885 0
-0.000106908201244 0.000198020184825 0
-0.000135523710372 0.000199251682582 0
-0.000161260148125 0.0002000406669 0
-0.00018401863657 0.000200255322308 0
-0.000203736987861 0.000199777913203 0
-0.000220377382939 0.000198506196554 0
-0.000233914632081 0.000196353149765 0
-0.000244325274258 0.000193245117066 0
-0.000251577715887 0.000189118466308 0
-0.000255623560924 0.000183914826976 0
-0.00025639023291 0.000177574948419 0
-0.000253774920369 0.000170031171754 0
-0.000247639784564 0.000161198446966 0
-0.000237808156847 0.000150963753123 0
-0.000224061340174 0.000139173749468 0
-0.000206134147476 0.000125620604356 0
-0.000183710533595 0.000110027759095 0
-0.000156399301073 9.20400538417e-05 0
-0.000123768692769 7.12771097705e-05 0
-8.51461514172e-05 4.75086499936e-05 0
-4.16330161265e-05 2.29416157174e-05 0
0.00019328212908 0.000217416268276 0
0.000152755197391 0.000217362216288 0
0.000111918736781 0.000217629736326 0
7.14229029761e-05 0.000218174925593 0
3.18756140218e-05 0.000218905000816 0
-6.18428935136e-06 0.000219706292901 0
-4.23039570474e-05 0.00022045222803 0
-7.61197148688e-05 0.000221008550684 0
-0.000107352034299 0.000221238721388 0
-0.000135796048939 0.000221009203357 0
-0.000161309803211 0.000220194055303 0
-0.00018380147869 0.000218678453179 0
-0.000203216358142 0.000216360956415 0
-0.000219524028618 0.000213154458535 0
-0.00023270618144 0.00020898583475 0
-0.000242745280163 0.000203794341186 0
-0.000249614308835 0.000197528846109 0
-0.000253267766588 0.000190143993425 0
-0.00025363403144 0.00018159542311 0
-0.000250609173567 0.000171834219575 0
-0.000244052243083 0.000160800862629 0
-0.00023378205705 0.000148419216537 0
-0.000219575378218 0.000134591702055 0
-0.000201167487238 0.000119198688351 0
-0.000178254601667 0.000102108848071 0
-0.000150519860086 8.32271075036e-05 0
-0.000117679258469 6.26165285446e-05 0
-7.99501452642e-05 4.10154001956e-05 0
-3.92442090664e-05 1.98540040819e-05 0
0.000193891424628 0.000246173293253 0
0.000153036321328 0.00024588834414 0
0.000111889813935 0.000245876759808 0
7.11608625506e-05 0.000246054264819 0
3.1471559303e-05 0.000246294568183 0
-6.64077392688e-06 0.000246457642532 0
-4.27291546469e-05 0.000246400917954 0
-7.64371864721e-05 0.000245983972804 0
-0.000107493378112 0.00024507183949 0
-0.000135701515542 0.000243538054122 0
-0.00016092877433 0.000241267388393 0
-0.000183092733022 0.000238157993525 0
-0.00020214805998 0.000234122743739 0
-0.000218073406803 0.000229089662534 0
-0.000230858896672 0.000223001397145 0
-0.000240494506617 0.000215813770676 0
-0.000246959585278 0.0002074934959 0
-0.000250213710251 0.000198015192112 0
-0.000250189068981 0.000187357925004 0
-0.000246784549617 0.000175501620789 0
-0.000239861791287 0.000162423955928 0
-0.000229243603308 0.000148098817701 0
-0.000214715834489 0.000132498538645 0
-0.000196034826052 0.000115604214259 0
-0.000172949351812 9.74346247303e-05 0
-0.000145251900991 7.81091687823e-05 0
-0.000112945444427 5.79984543231e-05 0
-7.66383946123e-05 3.78316281295e-05 0
-3.80801292976e-05 1.84648976538e-05 0
0.000194784711204 0.000275081542955 0
0.000153484318925 0.00027458368396 0
0.00011195667183 0.000274335414294 0
7.09552684813e-05 0.000274206594064 0
3.11138680347e-05 0.000274037807506 0
-7.03500704078e-06 0.000273662473474 0
-4.30553029003e-05 0.000272918593917 0
-7.66033673329e-05 0.000271654067205 0
-0.00010742086547 0.000269729398361 0
-0.0001353247425 0.000267019569345 0
-0.000160195191119 0.000263415522482 0
-0.000181962541585 0.000258825237714 0
-0.000200593791742 0.000253174280131 0
-0.000216079316602 0.000246405719898 0
-0.000228420171785 0.000238479386955 0
-0.000237616323022 0.000229370489076 0
-0.000243656084211 0.000219067691514 0
-0.000246507024577 0.000207570839058 0
-0.000246108615866 0.000194888616328 0
-0.000242366956577 0.000181036625316 0
-0.000235152079946 0.000166036671938 0
-0.000224298789469 0.00014991862611 0
-0.000209612869829 0.000132727198433 0
-0.000190887154718 0.00011453791879 0
-0.000167936383208 9.54882041899e-05 0
-0.000140675523002 7.583320609e-05 0
-0.000109278943435 5.60016935338e-05 0
-7.44250310363e-05 3.65637438407e-05 0
-3.74544702503e-05 1.79539345049e-05 0
0.000195959749489 0.000304402860387 0
0.000154068418508 0.000303719923504 0
0.0001120717458 0.000303284341561 0
7.07483877924e-05 0.000302914463645 0
3.0737004383e-05 0.000302414766678 0
-7.4386485924e-06 0.000301590575271 0
-4.33578758722e-05 0.000300258243746 0
-7.66947857498e-05 0.000298250613667 0
-0.0001072093058 0.000295419685893 0
-0.000134736403055 0.000291637992537 0
-0.000159173765297 0.000286799352642 0
-0.000180468548974 0.000280819208708 0
-0.000198603795825 0.000273634548559 0
-0.000213585031914 0.00026520337699 0
-0.000225427475244 0.00025550372809 0
-0.000234144214271 0.000244532263339 0
-0.000239735684009 0.000232302571136 0
-0.00024218076332 0.000218843374245 0
-0.000241429859511 0.000204196977217 0
-0.000237400464726 0.000188418471799 0
-0.000229975935673 0.000171576506046 0
-0.00021900878868 0.000153756849474 0
-0.000204330972758 0.000135070605144 0
-0.000185775682542 0.000115669295258 0
-0.000163219708005 9.57686430291e-05 0
-0.000136659603922 7.56741233324e-05 0
-0.000106328495957 5.57802980793e-05 0
-7.281602163e-05 3.64851964497e-05 0
-3.70588771908e-05 1.79796366781e-05 0
0.000197393012482 0.000334396668054 0
0.000154746784973 0.000333564073686 0
0.000112180159086 0.000332993017307 0
7.04780712081e-05 0.000332446793359 0
3.0274844672e-05 0.000331690106526 0
-7.91988035991e-06 0.000330497700752 0
-4.37054226056e-05 0.000328662142815 0
-7.67785401632e-05 0.000325998793996 0
-0.000106922509509 0.000322348433822 0
-0.000133995375153 0.000317578442089 0
-0.000157917176054 0.000311583167288 0
-0.000178656468989 0.000304283783331 0
-0.000196216613421 0.000295627743691 0
-0.000210622281065 0.000285587868242 0
-0.00022190661212 0.000274161095415 0
-0.000230099401587 0.000261366968315 0
-0.000235216681241 0.000247245983722 0
-0.000237252077909 0.00023185801525 0
-0.000236170394558 0.000215281131826 0
-0.000231904010973 0.000197611279257 0
-0.000224352994021 0.00017896347686 0
-0.000213390358295 0.000159475375773 0
-0.000198874848866 0.000139314042395 0
-0.000180675121804 0.000118686236965 0
-0.000158710602929 9.78494539878e-05 0
-0.000133012603497 7.71135977835e-05 0
-0.000103796677458 5.68110960541e-05 0
-7.15056360843e-05 3.72089994943e-05 0
-3.6740561768e-05 1.83643601707e-05 0
0.000199040903291 0.000365313662349 0
0.000155466376513 0.000364373995974 0
0.00011222056848 0.000363721024323 0
7.00785683561e-05 0.000363061358591 0
2.96604171475e-05 0.000362116792434 0
-8.54480036072e-06 0.000360628764014 0
-4.41616329355e-05 0.0003583638415 0
-7.69145554373e-05 0.000355117865229 0
-0.000106615369274 0.000350718366147 0
-0.000133150411592 0.000345025631097 0
-0.000156467194743 0.000337932857589 0
-0.000176560602954 0.000329365699348 0
-0.00019345898748 0.00031928136788 0
-0.000207210564123 0.000307667380757 0
-0.000217870518279 0.000294540028066 0
-0.000225489210546 0.000279942646756 0
-0.000230101875429 0.000263943835819 0
-0.000231720234043 0.000246635806623 0
-0.000230326517319 0.00022813313835 0
-0.000225870545693 0.000208572288853 0
-0.000218270773696 0.000188112267446 0
-0.000207420621245 0.000166936815772 0
-0.000193201983132 0.000145258053067 0
-0.00017550827568 0.000123320277393 0
-0.000154278758383 0.000101399727816 0
-0.000129541715327 7.97912675775e-05 0
-0.000101453047786 5.87689019801e-05 0
-7.02985350654e-05 3.85115167707e-05 0
-3.64141479975e-05 1.90086663047e-05 0
0.00020084133469 0.000397393416562 0
0.000156162467798 0.000396396423324 0
0.000112124701307 0.000395717337344 0
6.94802926066e-05 0.000395005656512 0
2.88254123011e-05 0.000393937919281 0
-9.37842331421e-06 0.000392219740248 0
-4.47867593346e-05 0.000389589524544 0
-7.71571823503e-05 0.000385821740797 0
-0.000106335394062 0.000380729019356 0
-0.000132241421875 0.000374163080726 0
-0.000154855594231 0.00036601473839 0
-0.000174204314959 0.000356213218939 0
-0.000190345890877 0.0003447249759 0
-0.000203356762422 0.000331552118862 0
-0.00021331851904 0.000316730555917 0
-0.000220306090646 0.000300327951687 0
-0.000224377519496 0.00028244162705 0
-0.000225565750757 0.000263196560918 0
-0.000223872950256 0.000242743687655 0
-0.000219267979453 0.000221258693974 0
-0.000211687839761 0.00019894145833 0
-0.000201044123172 0.000176016044151 0
-0.000187235655908 0.000152730556819 0
-0.000170168226578 0.000129354921697 0
-0.000149780698114 0.000106172562542 0
-0.000126072601181 8.34597067808e-05 0
-9.9120640526e-05 6.1446010307e-05 0
-6.90626417127e-05 4.0256696791e-05 0
-3.60261628452e-05 1.98522193134e-05 0
0.000202715242454 0.000430863807187 0
0.000156758336702 0.000429866444139 0
0.000111816556842 0.000429220110622 0
6.86090865357e-05 0.000428517306796 0
2.76994509098e-05 0.000427387638768 0
-1.04855746428e-05 0.000425498746546 0
-4.56387050465e-05 0.000422558872845 0
-7.75563887102e-05 0.000418319416127 0
-0.000106123866233 0.000412576681931 0
-0.000131300468957 0.000405172641566 0
-0.000153104893981 0.000395994788122 0
-0.000171600475505 0.000384975258646 0
-0.000186880659682 0.000372089381804 0
-0.000199054991918 0.000357353781037 0
-0.000208235973548 0.000340824142981 0
-0.000214527168255 0.00032259275564 0
-0.000218012958871 0.000302785926428 0
-0.00021875038685 0.000281561397236 0
-0.000216763559256 0.000259105866963 0
-0.000212041183921 0.0002356326842 0
-0.00020453787811 0.000211379635707 0
-0.000194179931802 0.000186606447096 0
-0.000180876038931 0.000161591017897 0
-0.000164532809029 0.000136622453794 0
-0.000145073109512 0.00011198780035 0
-0.000122451964485 8.79487924012e-05 0
-9.66601483288e-05 6.47065467847e-05 0
-6.77022016498e-05 4.23578396049e-05 0
-3.55388643024e-05 2.08563059206e-05 0
0.000204567826968 0.000465941250064 0
0.000157165122668 0.000465007740618 0
0.000111211636829 0.000464456889968 0
6.73853436738e-05 0.000463824404565 0
2.6209232443e-05 0.00046269170931 0
-1.19317566058e-05 0.000460686672513 0
-4.67739419661e-05 0.000457485590867 0
-7.81587057956e-05 0.000452815250232 0
-0.000106016751035 0.000446454373938 0
-0.000130352567348 0.000438234197183 0
-0.000151228987129 0.000428038161294 0
-0.000168751884699 0.000415800831924 0
-0.000183055211412 0.000401506171846 0
-0.000194286649706 0.000385185291529 0
-0.000202594220196 0.000366913786536 0
-0.00020811420469 0.000346808759634 0
-0.000210960768885 0.000325025616389 0
-0.000211217691451 0.000301754707326 0
-0.000208932634035 0.000277217852389 0
-0.000204114411987 0.000251664699146 0
-0.000196733719367 0.000225368696944 0
-0.000186727654013 0.000198622166018 0
-0.000174008039736 0.000171729466214 0
-0.000158472728651 0.000144996670532 0
-0.000140017536992 0.000118715685254 0
-0.000118544182643 9.31410509161e-05 0