# vtk DataFile Version 2.0
Generated with Solid Solver
ASCII
DATASET UNSTRUCTURED_GRID
POINTS 3751 float 
0.0 0.0 0.0
12.0 0.0 0.0
12.0 4.0 0.0
0.0 4.0 0.0
0.0999999999996 0.0 0.0
0.199999999999 0.0 0.0
0.299999999999 0.0 0.0
0.399999999998 0.0 0.0
0.499999999998 0.0 0.0
0.599999999997 0.0 0.0
0.699999999997 0.0 0.0
0.799999999996 0.0 0.0
0.899999999996 0.0 0.0
0.999999999996 0.0 0.0
1.1 0.0 0.0
1.2 0.0 0.0
1.29999999999 0.0 0.0
1.39999999999 0.0 0.0
1.49999999999 0.0 0.0
1.59999999999 0.0 0.0
1.69999999999 0.0 0.0
1.79999999999 0.0 0.0
1.89999999999 0.0 0.0
1.99999999999 0.0 0.0
2.09999999999 0.0 0.0
2.19999999999 0.0 0.0
2.29999999999 0.0 0.0
2.39999999999 0.0 0.0
2.49999999999 0.0 0.0
2.59999999999 0.0 0.0
2.69999999999 0.0 0.0
2.79999999999 0.0 0.0
2.89999999999 0.0 0.0
2.99999999999 0.0 0.0
3.09999999999 0.0 0.0
3.19999999999 0.0 0.0
3.29999999999 0.0 0.0
3.39999999999 0.0 0.0
3.49999999999 0.0 0.0
3.59999999999 0.0 0.0
3.69999999999 0.0 0.0
3.79999999998 0.0 0.0
3.89999999998 0.0 0.0
3.99999999998 0.0 0.0
4.09999999998 0.0 0.0
4.19999999998 0.0 0.0
4.29999999998 0.0 0.0
4.39999999998 0.0 0.0
4.49999999998 0.0 0.0
4.59999999998 0.0 0.0
4.69999999998 0.0 0.0
4.79999999998 0.0 0.0
4.89999999998 0.0 0.0
4.99999999998 0.0 0.0
5.09999999998 0.0 0.0
5.19999999998 0.0 0.0
5.29999999998 0.0 0.0
5.39999999998 0.0 0.0
5.49999999998 0.0 0.0
5.59999999998 0.0 0.0
5.69999999998 0.0 0.0
5.79999999998 0.0 0.0
5.89999999998 0.0 0.0
5.99999999998 0.0 0.0
6.09999999998 0.0 0.0
6.19999999998 0.0 0.0
6.29999999998 0.0 0.0
6.39999999998 0.0 0.0
6.49999999998 0.0 0.0
6.59999999998 0.0 0.0
6.69999999998 0.0 0.0
6.79999999998 0.0 0.0
6.89999999998 0.0 0.0
6.99999999998 0.0 0.0
7.09999999998 0.0 0.0
7.19999999998 0.0 0.0
7.29999999998 0.0 0.0
7.39999999998 0.0 0.0
7.49999999998 0.0 0.0
7.59999999998 0.0 0.0
7.69999999998 0.0 0.0
7.79999999998 0.0 0.0
7.89999999998 0.0 0.0
7.99999999998 0.0 0.0
8.09999999999 0.0 0.0
8.19999999999 0.0 0.0
8.29999999999 0.0 0.0
8.39999999999 0.0 0.0
8.49999999999 0.0 0.0
8.59999999999 0.0 0.0
8.69999999999 0.0 0.0
8.79999999999 0.0 0.0
8.89999999999 0.0 0.0
8.99999999999 0.0 0.0
9.09999999999 0.0 0.0
9.19999999999 0.0 0.0
9.29999999999 0.0 0.0
9.39999999999 0.0 0.0
9.49999999999 0.0 0.0
9.59999999999 0.0 0.0
9.69999999999 0.0 0.0
9.79999999999 0.0 0.0
9.89999999999 0.0 0.0
9.99999999999 0.0 0.0
10.1 0.0 0.0
10.2 0.0 0.0
10.3 0.0 0.0
10.4 0.0 0.0
10.5 0.0 0.0
10.6 0.0 0.0
10.7 0.0 0.0
10.8 0.0 0.0
10.9 0.0 0.0
11.0 0.0 0.0
11.1 0.0 0.0
11.2 0.0 0.0
11.3 0.0 0.0
11.4 0.0 0.0
11.5 0.0 0.0
11.6 0.0 0.0
11.7 0.0 0.0
11.8 0.0 0.0
11.9 0.0 0.0
12.0 0.133333333333 0.0
12.0 0.266666666666 0.0
12.0 0.399999999999 0.0
12.0 0.533333333332 0.0
12.0 0.666666666665 0.0
12.0 0.799999999998 0.0
12.0 0.933333333331 0.0
12.0 1.06666666666 0.0
12.0 1.2 0.0
12.0 1.33333333333 0.0
12.0 1.46666666666 0.0
12.0 1.6 0.0
12.0 1.73333333333 0.0
12.0 1.86666666666 0.0
12.0 1.99999999999 0.0
12.0 2.13333333333 0.0
12.0 2.26666666666 0.0
12.0 2.4 0.0
12.0 2.53333333333 0.0
12.0 2.66666666666 0.0
12.0 2.8 0.0
12.0 2.93333333333 0.0
12.0 3.06666666666 0.0
12.0 3.2 0.0
12.0 3.33333333333 0.0
12.0 3.46666666667 0.0
12.0 3.6 0.0
12.0 3.73333333333 0.0
12.0 3.86666666667 0.0
11.9 4.0 0.0
11.8 4.0 0.0
11.7 4.0 0.0
11.6 4.0 0.0
11.5 4.0 0.0
11.4 4.0 0.0
11.3 4.0 0.0
11.2 4.0 0.0
11.1 4.0 0.0
11.0 4.0 0.0
10.9 4.0 0.0
10.8 4.0 0.0
10.7 4.0 0.0
10.6 4.0 0.0
10.5 4.0 0.0
10.4 4.0 0.0
10.3 4.0 0.0
10.2 4.0 0.0
10.1 4.0 0.0
10.0 4.0 0.0
9.90000000001 4.0 0.0
9.80000000001 4.0 0.0
9.70000000001 4.0 0.0
9.60000000001 4.0 0.0
9.50000000001 4.0 0.0
9.40000000001 4.0 0.0
9.30000000001 4.0 0.0
9.20000000001 4.0 0.0
9.10000000001 4.0 0.0
9.00000000001 4.0 0.0
8.90000000001 4.0 0.0
8.80000000001 4.0 0.0
8.70000000001 4.0 0.0
8.60000000001 4.0 0.0
8.50000000001 4.0 0.0
8.40000000001 4.0 0.0
8.30000000001 4.0 0.0
8.20000000001 4.0 0.0
8.10000000001 4.0 0.0
8.00000000001 4.0 0.0
7.90000000001 4.0 0.0
7.80000000001 4.0 0.0
7.70000000001 4.0 0.0
7.60000000001 4.0 0.0
7.50000000001 4.0 0.0
7.40000000001 4.0 0.0
7.30000000001 4.0 0.0
7.20000000001 4.0 0.0
7.10000000001 4.0 0.0
7.00000000001 4.0 0.0
6.90000000001 4.0 0.0
6.80000000001 4.0 0.0
6.70000000001 4.0 0.0
6.60000000001 4.0 0.0
6.50000000001 4.0 0.0
6.40000000001 4.0 0.0
6.30000000002 4.0 0.0
6.20000000002 4.0 0.0
6.10000000002 4.0 0.0
6.00000000002 4.0 0.0
5.90000000002 4.0 0.0
5.80000000002 4.0 0.0
5.70000000002 4.0 0.0
5.60000000002 4.0 0.0
5.50000000002 4.0 0.0
5.40000000002 4.0 0.0
5.30000000001 4.0 0.0
5.20000000001 4.0 0.0
5.10000000001 4.0 0.0
5.00000000001 4.0 0.0
4.90000000001 4.0 0.0
4.80000000001 4.0 0.0
4.70000000001 4.0 0.0
4.60000000001 4.0 0.0
4.50000000001 4.0 0.0
4.40000000001 4.0 0.0
4.30000000001 4.0 0.0
4.20000000001 4.0 0.0
4.10000000001 4.0 0.0
4.00000000001 4.0 0.0
3.90000000001 4.0 0.0
3.80000000001 4.0 0.0
3.70000000001 4.0 0.0
3.60000000001 4.0 0.0
3.50000000001 4.0 0.0
3.40000000001 4.0 0.0
3.30000000001 4.0 0.0
3.20000000001 4.0 0.0
3.10000000001 4.0 0.0
3.00000000001 4.0 0.0
2.90000000001 4.0 0.0
2.80000000001 4.0 0.0
2.70000000001 4.0 0.0
2.60000000001 4.0 0.0
2.50000000001 4.0 0.0
2.40000000001 4.0 0.0
2.30000000001 4.0 0.0
2.20000000001 4.0 0.0
2.10000000001 4.0 0.0
2.00000000001 4.0 0.0
1.90000000001 4.0 0.0
1.80000000001 4.0 0.0
1.7 4.0 0.0
1.6 4.0 0.0
1.5 4.0 0.0
1.4 4.0 0.0
1.3 4.0 0.0
1.2 4.0 0.0
1.1 4.0 0.0
1.0 4.0 0.0
0.900000000003 4.0 0.0
0.800000000002 4.0 0.0
0.700000000002 4.0 0.0
0.600000000002 4.0 0.0
0.500000000001 4.0 0.0
0.400000000001 4.0 0.0
0.300000000001 4.0 0.0
0.200000000001 4.0 0.0
0.1 4.0 0.0
0.0 3.86666666667 0.0
0.0 3.73333333333 0.0
0.0 3.6 0.0
0.0 3.46666666666 0.0
0.0 3.33333333333 0.0
0.0 3.2 0.0
0.0 3.06666666667 0.0
0.0 2.93333333334 0.0
0.0 2.8 0.0
0.0 2.66666666667 0.0
0.0 2.53333333334 0.0
0.0 2.40000000001 0.0
0.0 2.26666666667 0.0
0.0 2.13333333334 0.0
0.0 2.00000000001 0.0
0.0 1.86666666667 0.0
0.0 1.73333333334 0.0
0.0 1.60000000001 0.0
0.0 1.46666666667 0.0
0.0 1.33333333334 0.0
0.0 1.2 0.0
0.0 1.06666666667 0.0
0.0 0.933333333337 0.0
0.0 0.800000000003 0.0
0.0 0.666666666669 0.0
0.0 0.533333333336 0.0
0.0 0.400000000002 0.0
0.0 0.266666666668 0.0
0.0 0.133333333334 0.0
11.9 3.86666666667 0.0
11.9 3.73333333333 0.0
11.9 3.6 0.0
11.9 3.46666666667 0.0
11.9 3.33333333333 0.0
11.9 3.2 0.0
11.9 3.06666666666 0.0
11.9 2.93333333333 0.0
11.9 2.8 0.0
11.9 2.66666666666 0.0
11.9 2.53333333333 0.0
11.9 2.4 0.0
11.9 2.26666666666 0.0
11.9 2.13333333333 0.0
11.9 1.99999999999 0.0
11.9 1.86666666666 0.0
11.9 1.73333333333 0.0
11.9 1.6 0.0
11.9 1.46666666666 0.0
11.9 1.33333333333 0.0
11.9 1.2 0.0
11.9 1.06666666666 0.0
11.9 0.933333333331 0.0
11.9 0.799999999998 0.0
11.9 0.666666666665 0.0
11.9 0.533333333332 0.0
11.9 0.399999999999 0.0
11.9 0.266666666666 0.0
11.9 0.133333333333 0.0
11.8 3.86666666667 0.0
11.8 3.73333333333 0.0
11.8 3.6 0.0
11.8 3.46666666667 0.0
11.8 3.33333333333 0.0
11.8 3.2 0.0
11.8 3.06666666666 0.0
11.8 2.93333333333 0.0
11.8 2.8 0.0
11.8 2.66666666666 0.0
11.8 2.53333333333 0.0
11.8 2.4 0.0
11.8 2.26666666666 0.0
11.8 2.13333333333 0.0
11.8 1.99999999999 0.0
11.8 1.86666666666 0.0
11.8 1.73333333333 0.0
11.8 1.6 0.0
11.8 1.46666666666 0.0
11.8 1.33333333333 0.0
11.8 1.2 0.0
11.8 1.06666666666 0.0
11.8 0.933333333331 0.0
11.8 0.799999999998 0.0
11.8 0.666666666665 0.0
11.8 0.533333333332 0.0
11.8 0.399999999999 0.0
11.8 0.266666666666 0.0
11.8 0.133333333333 0.0
11.7 3.86666666667 0.0
11.7 3.73333333333 0.0
11.7 3.6 0.0
11.7 3.46666666667 0.0
11.7 3.33333333333 0.0
11.7 3.2 0.0
11.7 3.06666666666 0.0
11.7 2.93333333333 0.0
11.7 2.8 0.0
11.7 2.66666666666 0.0
11.7 2.53333333333 0.0
11.7 2.4 0.0
11.7 2.26666666666 0.0
11.7 2.13333333333 0.0
11.7 2.0 0.0
11.7 1.86666666666 0.0
11.7 1.73333333333 0.0
11.7 1.6 0.0
11.7 1.46666666666 0.0
11.7 1.33333333333 0.0
11.7 1.2 0.0
11.7 1.06666666666 0.0
11.7 0.933333333331 0.0
11.7 0.799999999998 0.0
11.7 0.666666666665 0.0
11.7 0.533333333332 0.0
11.7 0.399999999999 0.0
11.7 0.266666666666 0.0
11.7 0.133333333333 0.0
11.6 3.86666666667 0.0
11.6 3.73333333333 0.0
11.6 3.6 0.0
11.6 3.46666666667 0.0
11.6 3.33333333333 0.0
11.6 3.2 0.0
11.6 3.06666666666 0.0
11.6 2.93333333333 0.0
11.6 2.8 0.0
11.6 2.66666666666 0.0
11.6 2.53333333333 0.0
11.6 2.4 0.0
11.6 2.26666666666 0.0
11.6 2.13333333333 0.0
11.6 2.0 0.0
11.6 1.86666666666 0.0
11.6 1.73333333333 0.0
11.6 1.6 0.0
11.6 1.46666666666 0.0
11.6 1.33333333333 0.0
11.6 1.2 0.0
11.6 1.06666666666 0.0
11.6 0.933333333331 0.0
11.6 0.799999999998 0.0
11.6 0.666666666665 0.0
11.6 0.533333333332 0.0
11.6 0.399999999999 0.0
11.6 0.266666666666 0.0
11.6 0.133333333333 0.0
11.5 3.86666666667 0.0
11.5 3.73333333333 0.0
11.5 3.6 0.0
11.5 3.46666666667 0.0
11.5 3.33333333333 0.0
11.5 3.2 0.0
11.5 3.06666666666 0.0
11.5 2.93333333333 0.0
11.5 2.8 0.0
11.5 2.66666666666 0.0
11.5 2.53333333333 0.0
11.5 2.4 0.0
11.5 2.26666666666 0.0
11.5 2.13333333333 0.0
11.5 2.0 0.0
11.5 1.86666666666 0.0
11.5 1.73333333333 0.0
11.5 1.6 0.0
11.5 1.46666666666 0.0
11.5 1.33333333333 0.0
11.5 1.2 0.0
11.5 1.06666666666 0.0
11.5 0.933333333331 0.0
11.5 0.799999999998 0.0
11.5 0.666666666665 0.0
11.5 0.533333333332 0.0
11.5 0.399999999999 0.0
11.5 0.266666666666 0.0
11.5 0.133333333333 0.0
11.4 3.86666666667 0.0
11.4 3.73333333333 0.0
11.4 3.6 0.0
11.4 3.46666666667 0.0
11.4 3.33333333333 0.0
11.4 3.2 0.0
11.4 3.06666666666 0.0
11.4 2.93333333333 0.0
11.4 2.8 0.0
11.4 2.66666666666 0.0
11.4 2.53333333333 0.0
11.4 2.4 0.0
11.4 2.26666666666 0.0
11.4 2.13333333333 0.0
11.4 2.0 0.0
11.4 1.86666666666 0.0
11.4 1.73333333333 0.0
11.4 1.6 0.0
11.4 1.46666666666 0.0
11.4 1.33333333333 0.0
11.4 1.2 0.0
11.4 1.06666666666 0.0
11.4 0.933333333331 0.0
11.4 0.799999999998 0.0
11.4 0.666666666665 0.0
11.4 0.533333333333 0.0
11.4 0.399999999999 0.0
11.4 0.266666666666 0.0
11.4 0.133333333333 0.0
11.3 3.86666666667 0.0
11.3 3.73333333333 0.0
11.3 3.6 0.0
11.3 3.46666666667 0.0
11.3 3.33333333333 0.0
11.3 3.2 0.0
11.3 3.06666666666 0.0
11.3 2.93333333333 0.0
11.3 2.8 0.0
[...]
POINT_DATA 3751
VECTORS Displacement float
0.0 0.0 0
0.0 0.0 0
-0.00391300411201 0.00129505977946 0
-0.0590735659088 -0.166736907367 0
0.0 0.0 0
0.0 0.0 0
0.0 0.0 0
0.0 0.0 0
0.0 0.0 0
0.0 0.0 0
0.0 0.0 0
0.0 0.0 0
0.0 0.0 0
0.0 0.0 0
0.0 0.0 0
0.0 0.0 0
0.0 0.0 0
0.0 0.0 0
0.0 0.0 0
0.0 0.0 0
0.0 0.0 0
0.0 0.0 0
0.0 0.0 0
0.0 0.0 0
0.0 0.0 0
0.0 0.0 0
0.0 0.0 0
0.0 0.0 0
0.0 0.0 0
0.0 0.0 0
0.0 0.0 0
0.0 0.0 0
0.0 0.0 0
0.0 0.0 0
0.0 0.0 0
0.0 0.0 0
0.0 0.0 0
0.0 0.0 0
0.0 0.0 0
0.0 0.0 0
0.0 0.0 0
0.0 0.0 0
0.0 0.0 0
0.0 0.0 0
0.0 0.0 0
0.0 0.0 0
0.0 0.0 0
0.0 0.0 0
0.0 0.0 0
0.0 0.0 0
0.0 0.0 0
0.0 0.0 0
0.0 0.0 0
0.0 0.0 0
0.0 0.0 0
0.0 0.0 0
0.0 0.0 0
0.0 0.0 0
0.0 0.0 0
0.0 0.0 0
0.0 0.0 0
0.0 0.0 0
0.0 0.0 0
0.0 0.0 0
0.0 0.0 0
0.0 0.0 0
0.0 0.0 0
0.0 0.0 0
0.0 0.0 0
0.0 0.0 0
0.0 0.0 0
0.0 0.0 0
0.0 0.0 0
0.0 0.0 0
0.0 0.0 0
0.0 0.0 0
0.0 0.0 0
0.0 0.0 0
0.0 0.0 0
0.0 0.0 0
0.0 0.0 0
0.0 0.0 0
0.0 0.0 0
0.0 0.0 0
0.0 0.0 0
0.0 0.0 0
0.0 0.0 0
0.0 0.0 0
0.0 0.0 0
0.0 0.0 0
0.0 0.0 0
0.0 0.0 0
0.0 0.0 0
0.0 0.0 0
0.0 0.0 0
0.0 0.0 0
0.0 0.0 0
0.0 0.0 0
0.0 0.0 0
0.0 0.0 0
0.0 0.0 0
0.0 0.0 0
0.0 0.0 0
0.0 0.0 0
0.0 0.0 0
0.0 0.0 0
0.0 0.0 0
0.0 0.0 0
0.0 0.0 0
0.0 0.0 0
0.0 0.0 0
0.0 0.0 0
0.0 0.0 0
0.0 0.0 0
0.0 0.0 0
0.0 0.0 0
0.0 0.0 0
0.0 0.0 0
0.0 0.0 0
0.0 0.0 0
0.0 0.0 0
0.0 0.0 0
0.0 0.0 0
-0.00030325103894 0.000283252324597 0
-0.000511172970669 0.000470979781721 0
-0.000710283411589 0.000616282788679 0
-0.00089847839547 0.000738059511786 0
-0.00108031611095 0.000841618953375 0
-0.00125648420051 0.000930498271486 0
-0.0014274324775 0.00100689986636 0
-0.00159325437641 0.00107244514587 0
-0.00175392795335 0.00112837930458 0
-0.00190936490216 0.0011757125957 0
-0.00205944851334 0.00121529678801 0
-0.00220405208639 0.00124787557439 0
-0.00234305123858 0.00127411842875 0
-0.00247633280934 0.00129464471407 0
-0.00260380251769 0.00131004132172 0
-0.00272539234693 0.00132087579541 0
-0.00284106823133 0.00132770604764 0
-0.00295083836558 0.00133108729894 0
-0.00305476232785 0.00133157655498 0
-0.0031529611309 0.00132973470414 0
-0.00324562826326 0.00132612611093 0
-0.00333304172758 0.00132131534972 0
-0.00341557698824 0.0013158604109 0
-0.00349372053257 0.00131030122815 0
-0.00356808324778 0.00130514154898 0
-0.00363941159109 0.00130082067635 0
-0.00370859107054 0.0012976686233 0
-0.00377662666184 0.00129583268322 0
-0.00384454587176 0.00129515473748 0
-0.00391298197817 0.0012435443662 0
-0.00391272469567 0.00119166858833 0
-0.00391192825999 0.00113959673954 0
-0.00391042710148 0.0010877214003 0
-0.00390818065939 0.00103648396681 0
-0.00390523893137 0.000986313716214 0
-0.00390171453561 0.000937605463388 0
-0.00389776281332 0.000890712211837 0
-0.00389356804125 0.000845944203417 0
-0.00388933384726 0.000803570730701 0
-0.00388527650152 0.000763823110496 0
-0.00388162021158 0.000726898069099 0
-0.00387859385139 0.000692961176652 0
-0.0038764287447 0.000662150151084 0
-0.00387535724333 0.000634577942581 0
-0.00387561191812 0.000610335555608 0
-0.00387742523058 0.000589494589416 0
-0.00388102958766 0.000572109490629 0
-0.00388665770509 0.000558219518214 0
-0.00389454322124 0.00054785042469 0
-0.00390492151545 0.000541015859318 0
-0.00391803069366 0.000537718499892 0
-0.00393411271079 0.000537950920155 0
-0.0039534146047 0.000541696199895 0
-0.00397618982086 0.000548928284543 0
-0.00400269961021 0.000559612100793 0
-0.00403321448555 0.000573703434173 0
-0.00406801572423 0.000591148573943 0
-0.00410739690698 0.000611883729891 0
-0.00415166548402 0.000635834224825 0
-0.00420114436139 0.000662913465632 0
-0.00425617350122 0.000693021694831 0
-0.00431711153059 0.000726044523555 0
-0.00438433735425 0.000761851245882 0
-0.00445825176701 0.000800292933395 0
-0.00453927906173 0.000841200307846 0
-0.00462786862895 0.00088438138877 0
-0.00472449654432 0.000929618911919 0
-0.00482966713952 0.000976667513432 0
-0.00494391455231 0.00102525067371 0
-0.00506780425086 0.00107505741414 0
-0.00520193452681 0.00112573873886 0
-0.00534693795127 0.0011769038131 0
-0.00550348278694 0.00122811586872 0
-0.00567227434894 0.00127888782695 0
-0.00585405630628 0.00132867762746 0
-0.00604961191459 0.00137688325251 0
-0.00625976517031 0.00142283743377 0
-0.00648538187538 0.00146580202915 0
-0.00672737060031 0.00150496205609 0
-0.0069866835328 0.00153941936689 0
-0.00726431719789 0.00156818595094 0
-0.00756131303445 0.001590176848 0
-0.00787875781204 0.00160420265515 0
-0.00821778387083 0.00160896160932 0
-0.00857956916617 0.00160303122554 0
-0.00896533709866 0.00158485946953 0
-0.009376356109 0.00155275544118 0
-0.00981393901614 0.00150487954287 0
-0.0102794420762 0.00143923310384 0
-0.010774263738 0.0013536474278 0
-0.0112998430712 0.00124577222703 0
-0.0118576578395 0.0011130634003 0
-0.0124492221938 0.000952770105721 0
-0.0130760839549 0.000761921071613 0
-0.0137398214577 0.000537310078508 0
-0.0144420399237 0.000275480533869 0
-0.0151843673311 -2.72909534683e-05 0
-0.0159684497455 -0.000375012109573 0
-0.0167959460749 -0.000771993774176 0
-0.0176685222088 -0.00122287007962 0
-0.0185878444964 -0.00173262021945 0
-0.0195555725167 -0.00230659203469 0
-0.0205733510861 -0.00295052769348 0
-0.0216428014408 -0.00367059179775 0
-0.0227655115249 -0.0044734023226 0
-0.0239430253007 -0.00536606488265 0
-0.0251768309824 -0.00635621092993 0
-0.0264683480762 -0.00745204062543 0
-0.0278189130831 -0.00866237129899 0
-0.0292297636876 -0.00999669263001 0
-0.0307020212119 -0.0114652299582 0
-0.0322366710616 -0.0130790174875 0
-0.0338345408124 -0.0148499836037 0
-0.0354962754944 -0.0167910511184 0
-0.0372223095003 -0.0189162560352 0
-0.0390128343799 -0.0212408894647 0
-0.0408677615538 -0.0237816687054 0
-0.04278667868 -0.0265569453881 0
-0.0447687979956 -0.0295869611701 0
-0.0468128943946 -0.0328941650735 0
-0.0489172302316 -0.0365036116669 0
-0.0510794627689 -0.0404434666402 0
-0.0532965286941 -0.0447456570887 0
-0.0555644980631 -0.0494467199213 0
-0.0578783872021 -0.0545889263991 0
-0.0602319164387 -0.060221799279 0
-0.0626171945978 -0.0664042011155 0
-0.0650243099108 -0.0732072740101 0
-0.0674408194618 -0.0807186955019 0
-0.0698511641343 -0.0890489914717 0
-0.0722363536403 -0.0983415729957 0
-0.0745741558393 -0.108787429532 0
-0.0768475911175 -0.120662707622 0
-0.0790394838279 -0.13431173382 0
-0.0813875927186 -0.150791974121 0
-0.0831826011294 -0.166702284443 0
-0.0723325756121 -0.212081077465 0
-0.064854072984 -0.246014241229 0
-0.0613116227498 -0.269012159245 0
-0.0597756394326 -0.280176072478 0
-0.0568309786138 -0.28669422334 0
-0.0559233172726 -0.27250278942 0
-0.0545693592028 -0.246510594813 0
-0.0518311407517 -0.207384364288 0
-0.0542034505056 -0.196086143193 0
-0.056624237679 -0.186266548239 0
-0.0581794204285 -0.179074054952 0
-0.0589309347578 -0.172915508715 0
-0.0676692378334 -0.167098741354 0
-0.0755285665886 -0.168336924993 0
-0.0808505730336 -0.169983552764 0
-0.0830546310593 -0.170990924983 0
-0.0825572060744 -0.170622560591 0
-0.0801290249409 -0.168632906284 0
-0.0765067542542 -0.165113617246 0
-0.0722573142945 -0.160310619914 0
-0.0677719526798 -0.154504547792 0
-0.0633028867495 -0.147954774973 0
-0.0590029411849 -0.140879299171 0
-0.0549576544999 -0.133452207019 0
-0.0512084075985 -0.125808321161 0
-0.0477681743457 -0.118050007969 0
-0.0446318578253 -0.110253918801 0
-0.0417828600693 -0.102476832332 0
-0.0391970824122 -0.094760397775 0
-0.0368451661695 -0.0871348376322 0
-0.0346934869489 -0.0796217485888 0
-0.0327041934505 -0.0722361370646 0
-0.0308344054675 -0.0649877816451 0
-0.0290345045854 -0.0578819456135 0
-0.027245282315 -0.0509193169252 0
-0.0253931191254 -0.0440949386718 0
-0.0233827804593 -0.0373948283247 0
-0.0210799171972 -0.0307903392416 0
-0.0182995665974 -0.0242127131399 0
-0.0146456653468 -0.0175365908597 0
-0.00981281770866 -0.0101409638024 0
-0.00384457770855 0.00124363611292 0
-0.00377697870545 0.00124421972488 0
-0.00370933015473 0.00124551569327 0
-0.00364051084146 0.00124752888566 0
-0.00356945350472 0.00125011228418 0
-0.00349523132855 0.00125299349578 0
-0.0034170714123 0.00125580973006 0
-0.00333434654526 0.00125813696735 0
-0.00324656081856 0.00125951169276 0
-0.00315333396568 0.00125944634326 0
-0.00305438614124 0.00125743984331 0
-0.00294952370305 0.00125298429259 0
-0.00283862614653 0.00124556854146 0
-0.00272163417867 0.001234679124 0
-0.00259853884894 0.00121979880821 0
-0.00246937160994 0.00120040283946 0
-0.00233419512474 0.0011759527687 0
-0.00219309454355 0.00114588753309 0
-0.0020461687992 0.00110961114358 0
-0.00189352116106 0.00106647584266 0
-0.00173524764483 0.00101575877275 0
-0.00157142087509 0.000956628687501 0
-0.00140206362035 0.000888096476707 0
-0.00122710507737 0.000808937193544 0
-0.00104627829988 0.000717559274361 0
-0.000858986947529 0.000611766762869 0
-0.00066352712818 0.000488260286197 0
-0.000457457700614 0.000341940621524 0
-0.000225555053167 0.00016349456193 0
-0.0038443827501 0.00119148738893 0
-0.00377713497783 0.00119169764538 0
-0.00370980804303 0.00119239381287 0
-0.00364123028477 0.0011934528039 0
-0.00357030760727 0.00119467017243 0
-0.00349609182567 0.00119577454877 0
-0.00341779350739 0.00119643626614 0
-0.00333477372815 0.00119627979219 0
-0.00324652893075 0.00119489615104 0
-0.00315267433456 0.00119185339404 0
-0.00305292779005 0.00118670457669 0
-0.00294709471376 0.0011789932618 0
-0.00283505425393 0.00116825672638 0
-0.00271674665408 0.00115402704989 0
-0.00259216170374 0.00113583020002 0
-0.00246132811591 0.00111318314343 0
-0.00232430360905 0.00108558889824 0
-0.00218116536626 0.00105252930231 0
-0.00203200035905 0.00101345507752 0
-0.00187689467316 0.000967772495077 0
-0.0017159203967 0.00091482555006 0
-0.00154911723552 0.00085387199914 0
-0.00137646473124 0.000784051042119 0
-0.00119783161183 0.000704339989469 0
-0.00101290156665 0.000613503987114 0
-0.000820952971618 0.00051004919288 0
-0.000620852532274 0.000392456049187 0
-0.000409587962958 0.000259921966822 0
-0.000191671196557 0.000124206902446 0
-0.00384385398524 0.00113905135123 0
-0.0037770514965 0.00113887802109 0
-0.00371008957831 0.00113903607242 0
-0.00364173542833 0.00113932687387 0
-0.00357088966986 0.00113949049427 0
-0.00349660285825 0.00113923439566 0
-0.00341808315617 0.00113823629944 0
-0.00333468887562 0.00113614672419 0
-0.00324591431518 0.00113259363556 0
-0.00315137352617 0.00112718780259 0
-0.00305078411807 0.00111952767884 0
-0.00294395192503 0.00110920319421 0
-0.00283075680198 0.00109579819798 0
-0.00271113957882 0.0010788914692 0
-0.0025850900935 0.00105805628117 0
-0.00245263616143 0.0010328585239 0
-0.00231383327636 0.00100285338108 0
-0.00216875474709 0.000967580546334 0
-0.00201748182401 0.0009265579751 0
-0.00186009313563 0.000879274260048 0
-0.0016966523217 0.000825180024081 0
-0.00152719235407 0.000763679670464 0
-0.00135169344626 0.000694127225526 0
-0.00117005518528 0.000615838374248 0
-0.000982050893376 0.000528147291363 0
-0.000787356973384 0.000430636510168 0
-0.000585596889748 0.000323719245527 0
-0.000378413080689 0.000211308203511 0
-0.000175461101886 0.000101338894682 0
-0.00384297179211 0.00108679407386 0
-0.00377677620093 0.00108629700802 0
-0.00371027259336 0.00108604213248 0
-0.00364218314 0.00108576144829 0
-0.00357141168404 0.00108515028109 0
-0.00349702188382 0.00108389055177 0
-0.00341823259388 0.00108165493245 0
-0.00333440953472 0.0010781058178 0
-0.00324505226719 0.00107289527785 0
-0.00314977901743 0.00106566645538 0
-0.00304831110309 0.0010560556457 0
-0.00294045787478 0.00104369434213 0
-0.00282610257165 0.00102821079414 0
-0.00270518922511 0.00100923084176 0
-0.00257771061215 0.000986377938491 0
-0.00244369718738 0.000959272380134 0
-0.00230320687392 0.00092752985533 0
-0.00215631554776 0.000890759567009 0
-0.00200310800804 0.000848562412389 0
-0.00184366919938 0.000800530183038 0
-0.00167807558493 0.000746247755601 0
-0.00150638693176 0.000685302374398 0
-0.00132864127072 0.000617309237896 0
-0.00114485929992 0.00054197272245 0
-0.000955095897747 0.000459234540296 0
-0.000759602052151 0.000369589141157 0
-0.000559528151366 0.000274867462728 0
-0.000358815531815 0.000178913028178 0
-0.000167124702765 8.66989688098e-05 0
-0.003841760015 0.00103520250618 0
-0.00377639119701 0.00103446318382 0
-0.00371047698602 0.00103393549948 0
-0.00364272911486 0.00103327910374 0
-0.00357206629854 0.00103214699913 0
-0.00349757546947 0.00103019563947 0
-0.00341849690524 0.00102708730035 0
-0.003334213346 0.00102248799876 0
-0.00324423756433 0.00101606514755 0
-0.0031481983494 0.00100748642451 0
-0.00304582591018 0.000996419741248 0
-0.00293693748813 0.000982533818913 0
-0.00282142364701 0.000965498938077 0
-0.00269923547886 0.000944987596095 0
-0.00257037283435 0.000920674974037 0
-0.00243487362091 0.000892239277057 0
-0.00229280419389 0.000859362194395 0
-0.00214425089512 0.000821729979874 0
-0.00198931290091 0.000779036070112 0
-0.00182809683142 0.000730986904139 0
-0.00166071424941 0.000677313989537 0
-0.00148728500142 0.000617797963341 0
-0.00130795323786 0.000552315284167 0
-0.00112293532815 0.000480928589951 0
-0.000932640715663 0.000404052307723 0
-0.0007379898042 0.000322752827578 0
-0.000541139106483 0.00023908565982 0
-0.000346718896625 0.000156055025898 0
-0.000162878036264 7.63660237966e-05 0
-0.00384028084115 0.000984738346617 0
-0.00377599522575 0.000983847640178 0
-0.00371083119644 0.000983184991702 0
-0.00364352714951 0.000982337095862 0
-0.00357303244079 0.000980913864738 0
-0.00349846703419 0.000978545703744 0
-0.0034191016153 0.000974881859636 0
-0.00333434453556 0.000969587155833 0
-0.00324372952724 0.000962338505038 0
-0.0031469026973 0.00095282233262 0
-0.0030436090099 0.000940733148628 0
-0.00293367880068 0.000925773043106 0
-0.00281701477911 0.000907651801317 0
-0.00269357983576 0.000886087426788 0
-0.0025633858736 0.000860807013087 0
-0.00242648384404 0.000831548089598 0
-0.00228295519565 0.00079806079707 0
-0.00213290505986 0.000760111571638 0
-0.00197645777026 0.000717489515607 0
-0.00181375588426 0.000670017447475 0
-0.00164496510243 0.000617570991171 0
-0.00147028998532 0.000560111255453 0
-0.00129001102984 0.000497740164755 0
-0.00110456434614 0.000430790635064 0
-0.000914709329516 0.000359964926783 0
-0.000721858738746 0.000286496212392 0
-0.000528632354432 0.000212206317908 0
-0.000339503344439 0.000139163590084 0
-0.000160939531508 6.86847109553e-05 0
-0.00383863042478 0.000935820070044 0
-0.0037757001521 0.000934875422583 0
-0.00371146695076 0.000934209145484 0
-0.00364472718583 0.000933338659987 0
-0.00357447763468 0.000931830293909 0
-0.0034998814567 0.000929287391247 0
-0.00342024798598 0.000925344316916 0
-0.00333501891493 0.000919661610765 0
-0.00324375622713 0.000911921674146 0
-0.0031461300695 0.000901825367199 0
-0.00304190629759 0.00088908972634 0
-0.00293093399221 0.000873446738277 0
-0.0028131333498 0.000854643003253 0
-0.00268848431015 0.00083244016238 0
-0.00255701624056 0.000806616089073 0
-0.00241879899626 0.00077696702418 0
-0.00227393575465 0.000743311072796 0
-0.00212255821783 0.000705493808828 0
-0.00196482517804 0.000663397204896 0
-0.00180092621466 0.00061695379479 0
-0.00163109374753 0.000566168938074 0
-0.00145562944714 0.000511155261694 0
-0.00127495590339 0.000452184052917 0
-0.00108971298598 0.000389756729867 0
-0.000900928377045 0.000324686666752 0
-0.000710290276746 0.000258146556828 0
-0.000520499146917 0.000191573205685 0
-0.000335527704643 0.000126284788521 0
-0.000160394403517 6.27740033071e-05 0
-0.00383693328218 0.000888817926345 0
-0.00377563027329 0.000887922416717 0
-0.0037125183427 0.000887377657476 0
-0.00364647491783 0.00088663845209 0
-0.00357655935762 0.000885228546453 0
-0.0035019880308 0.000882723534196 0
-0.00342211676363 0.000878741439167 0
-0.00333642772351 0.000872936272614 0
-0.00324451796055 0.000864992980125 0
-0.00314608815754 0.000854623509044 0
-0.00304093119848 0.000841564013384 0
-0.00292892071026 0.000825573168855 0
-0.00280999992733 0.000806431521928 0
-0.00268417127083 0.000783941825271 0
-0.00255148704272 0.000757930411744 0
-0.00241204167783 0.000728249815573 0
-0.00226596611787 0.000694783060355 0
-0.00211342512217 0.000657450310018 0
-0.00195461879628 0.000616218934321 0
-0.00178979044167 0.000571118465605 0
-0.00161924424258 0.000522262327021 0
-0.00144337859643 0.000469878217723 0
-0.00126274431745 0.000414347694664 0
-0.00107814067156 0.000356250115719 0
-0.000890762031091 0.00029639262985 0
-0.000702392181347 0.000235783256231 0
-0.000515593907052 0.00017547925395 0
-0.000333750470617 0.000116253917771 0
-0.000160729238137 5.81273852884e-05 0
-0.00383533653163 0.000844054565606 0
-0.00377592156169 0.000843316168788 0
-0.00371412228234 0.000843013290296 0
-0.00364891251063 0.000842546111398 0
-0.00357942641699 0.000841398215288 0
-0.00350494268811 0.000839117464862 0
-0.00342487100642 0.000835304503993 0
-0.00333874066772 0.000829605075355 0
-0.00324619016607 0.000821704347116 0
-0.00314695690649 0.000811322607719 0
-0.00304086677147 0.000798212151187 0
-0.00292782366807 0.000782155292931 0
-0.00280779938344 0.000762963478865 0
-0.0026808241614 0.000740477488011 0
-0.00254697846239 0.000714568809158 0
-0.00240638644404 0.000685142394826 0
-0.00225921184663 0.000652141155261 0
-0.00210565723636 0.000615552742773 0
-0.00194596801544 0.00057541936781 0
-0.00178044334242 0.000531851509929 0
-0.00160945721111 0.000485046241028 0
-0.00143349442621 0.000435310014058 0
-0.00125320769169 0.000383083211451 0
-0.00106950193618 0.000328957970409 0
-0.000883646340165 0.000273670470481 0
-0.000697396496663 0.000218036208742 0
-0.000513072728241 0.000162792428076 0
-0.000333492769096 0.000108337250822 0
-0.00016163645354 5.44281273296e-05 0
-0.00383400472361 0.000801808039486 0
-0.00377672045209 0.000801338813548 0
-0.00371641904161 0.000801394742627 0
-0.00365217970628 0.000801329498883 0
-0.00358322042959 0.000800589822151 0
-0.00350888992285 0.0007986965716 0
-0.00342865839972 0.00079523242761 0
-0.00334210844513 0.000789833508799 0
-0.0032489259521 0.000782183283599 0
-0.00314889088666 0.000772008014266 0
-0.00304186783221 0.000759073432228 0
-0.00292779649562 0.000743182535866 0
-0.00280668251597 0.000724174476686 0
-0.00267858901003 0.000701924550286 0
-0.00254362935913 0.000676345372462 0
-0.00240196183383 0.000647389405387 0
-0.00225378680373 0.000615053095178 0
-0.00209934752824 0.00057938296741 0
-0.00193893590679 0.000540484051185 0
-0.00177290511263 0.000498530857568 0
-0.00160169171449 0.000453780607776 0
-0.00142585050218 0.000406587087004 0
-0.00124610512719 0.000357410784048 0
-0.00106341532701 0.000306816291466 0
-0.000879054255674 0.000255441723713 0
-0.000694674278938 0.000203920398224 0
-0.000512316573016 0.000152739967162 0
-0.00033429877923 0.000102048805198 0
-0.000162921339217 5.14662978842e-05 0
-0.00383311552865 0.000762315693515 0
-0.00377818237067 0.000762230950581 0
-0.0037195525318 0.000762760194169 0
-0.00365641488781 0.000763218067354 0
-0.00358807727356 0.000763018137987 0
-0.00351396454782 0.000761655497786 0
-0.00343361327767 0.000758694687716 0
-0.00334666494671 0.000753761170256 0
-0.00325285836767 0.000746535082248 0
-0.00315202153526 0.000736746551621 0
-0.00304406310981 0.00072417223415 0
-0.00292896381077 0.000708632926029 0
-0.0028067680972 0.000689992205122 0
-0.00267757659182 0.000668156109773 0
-0.00254153977691 0.000643073911493 0
-0.00239885358165 0.000614740084117 0
-0.00224975761413 0.000583197605782 0
-0.00209453698942 0.000548542720631 0
-0.00193352897425 0.000510931174378 0
-0.00176713598499 0.000470585613073 0
-0.00159584672848 0.00042780311508 0
-0.00142026717224 0.000382960452404 0
-0.00124116193378 0.000336512395508 0
-0.00105950348144 0.000288975256077 0
-0.000876519832688 0.0002408849467 0
-0.000693720516549 0.00019271894792 0
-0.000512867714075 0.000144779329358 0
-0.000335852991392 9.70533297011e-05 0
-0.00016445472204 4.90960546322e-05 0
-0.00383285629971 0.000725778270096 0
-0.00378047024084 0.00072619581692 0
-0.00372367030771 0.000727311166488 0
-0.00366175593945 0.000728406383846 0
-0.00359412840305 0.000728865454664 0