# vtk DataFile Version 2.0
Generated with Solid Solver
ASCII
DATASET UNSTRUCTURED_GRID
POINTS 3751 float 
0.0 0.0 0.0
12.0 0.0 0.0
12.0 4.0 0.0
0.0 4.0 0.0
0.0999999999996 0.0 0.0
0.199999999999 0.0 0.0
0.299999999999 0.0 0.0
0.399999999998 0.0 0.0
0.499999999998 0.0 0.0
0.599999999997 0.0 0.0
0.699999999997 0.0 0.0
0.799999999996 0.0 0.0
0.899999999996 0.0 0.0
0.999999999996 0.0 0.0
1.1 0.0 0.0
1.2 0.0 0.0
1.29999999999 0.0 0.0
1.39999999999 0.0 0.0
1.49999999999 0.0 0.0
1.59999999999 0.0 0.0
1.69999999999 0.0 0.0
1.79999999999 0.0 0.0
1.89999999999 0.0 0.0
1.99999999999 0.0 0.0
2.09999999999 0.0 0.0
2.19999999999 0.0 0.0
2.29999999999 0.0 0.0
2.39999999999 0.0 0.0
2.49999999999 0.0 0.0
2.59999999999 0.0 0.0
2.69999999999 0.0 0.0
2.79999999999 0.0 0.0
2.89999999999 0.0 0.0
2.99999999999 0.0 0.0
3.09999999999 0.0 0.0
3.19999999999 0.0 0.0
3.29999999999 0.0 0.0
3.39999999999 0.0 0.0
3.49999999999 0.0 0.0
3.59999999999 0.0 0.0
3.69999999999 0.0 0.0
3.79999999998 0.0 0.0
3.89999999998 0.0 0.0
3.99999999998 0.0 0.0
4.09999999998 0.0 0.0
4.19999999998 0.0 0.0
4.29999999998 0.0 0.0
4.39999999998 0.0 0.0
4.49999999998 0.0 0.0
4.59999999998 0.0 0.0
4.69999999998 0.0 0.0
4.79999999998 0.0 0.0
4.89999999998 0.0 0.0
4.99999999998 0.0 0.0
5.09999999998 0.0 0.0
5.19999999998 0.0 0.0
5.29999999998 0.0 0.0
5.39999999998 0.0 0.0
5.49999999998 0.0 0.0
5.59999999998 0.0 0.0
5.69999999998 0.0 0.0
5.79999999998 0.0 0.0
5.89999999998 0.0 0.0
5.99999999998 0.0 0.0
6.09999999998 0.0 0.0
6.19999999998 0.0 0.0
6.29999999998 0.0 0.0
6.39999999998 0.0 0.0
6.49999999998 0.0 0.0
6.59999999998 0.0 0.0
6.69999999998 0.0 0.0
6.79999999998 0.0 0.0
6.89999999998 0.0 0.0
6.99999999998 0.0 0.0
7.09999999998 0.0 0.0
7.19999999998 0.0 0.0
7.29999999998 0.0 0.0
7.39999999998 0.0 0.0
7.49999999998 0.0 0.0
7.59999999998 0.0 0.0
7.69999999998 0.0 0.0
7.79999999998 0.0 0.0
7.89999999998 0.0 0.0
7.99999999998 0.0 0.0
8.09999999999 0.0 0.0
8.19999999999 0.0 0.0
8.29999999999 0.0 0.0
8.39999999999 0.0 0.0
8.49999999999 0.0 0.0
8.59999999999 0.0 0.0
8.69999999999 0.0 0.0
8.79999999999 0.0 0.0
8.89999999999 0.0 0.0
8.99999999999 0.0 0.0
9.09999999999 0.0 0.0
9.19999999999 0.0 0.0
9.29999999999 0.0 0.0
9.39999999999 0.0 0.0
9.49999999999 0.0 0.0
9.59999999999 0.0 0.0
9.69999999999 0.0 0.0
9.79999999999 0.0 0.0
9.89999999999 0.0 0.0
9.99999999999 0.0 0.0
10.1 0.0 0.0
10.2 0.0 0.0
10.3 0.0 0.0
10.4 0.0 0.0
10.5 0.0 0.0
10.6 0.0 0.0
10.7 0.0 0.0
10.8 0.0 0.0
10.9 0.0 0.0
11.0 0.0 0.0
11.1 0.0 0.0
11.2 0.0 0.0
11.3 0.0 0.0
11.4 0.0 0.0
11.5 0.0 0.0
11.6 0.0 0.0
11.7 0.0 0.0
11.8 0.0 0.0
11.9 0.0 0.0
12.0 0.133333333333 0.0
12.0 0.266666666666 0.0
12.0 0.399999999999 0.0
12.0 0.533333333332 0.0
12.0 0.666666666665 0.0
12.0 0.799999999998 0.0
12.0 0.933333333331 0.0
12.0 1.06666666666 0.0
12.0 1.2 0.0
12.0 1.33333333333 0.0
12.0 1.46666666666 0.0
12.0 1.6 0.0
12.0 1.73333333333 0.0
12.0 1.86666666666 0.0
12.0 1.99999999999 0.0
12.0 2.13333333333 0.0
12.0 2.26666666666 0.0
12.0 2.4 0.0
12.0 2.53333333333 0.0
12.0 2.66666666666 0.0
12.0 2.8 0.0
12.0 2.93333333333 0.0
12.0 3.06666666666 0.0
12.0 3.2 0.0
12.0 3.33333333333 0.0
12.0 3.46666666667 0.0
12.0 3.6 0.0
12.0 3.73333333333 0.0
12.0 3.86666666667 0.0
11.9 4.0 0.0
11.8 4.0 0.0
11.7 4.0 0.0
11.6 4.0 0.0
11.5 4.0 0.0
11.4 4.0 0.0
11.3 4.0 0.0
11.2 4.0 0.0
11.1 4.0 0.0
11.0 4.0 0.0
10.9 4.0 0.0
10.8 4.0 0.0
10.7 4.0 0.0
10.6 4.0 0.0
10.5 4.0 0.0
10.4 4.0 0.0
10.3 4.0 0.0
10.2 4.0 0.0
10.1 4.0 0.0
10.0 4.0 0.0
9.90000000001 4.0 0.0
9.80000000001 4.0 0.0
9.70000000001 4.0 0.0
9.60000000001 4.0 0.0
9.50000000001 4.0 0.0
9.40000000001 4.0 0.0
9.30000000001 4.0 0.0
9.20000000001 4.0 0.0
9.10000000001 4.0 0.0
9.00000000001 4.0 0.0
8.90000000001 4.0 0.0
8.80000000001 4.0 0.0
8.70000000001 4.0 0.0
8.60000000001 4.0 0.0
8.50000000001 4.0 0.0
8.40000000001 4.0 0.0
8.30000000001 4.0 0.0
8.20000000001 4.0 0.0
8.10000000001 4.0 0.0
8.00000000001 4.0 0.0
7.90000000001 4.0 0.0
7.80000000001 4.0 0.0
7.70000000001 4.0 0.0
7.60000000001 4.0 0.0
7.50000000001 4.0 0.0
7.40000000001 4.0 0.0
7.30000000001 4.0 0.0
7.20000000001 4.0 0.0
7.10000000001 4.0 0.0
7.00000000001 4.0 0.0
6.90000000001 4.0 0.0
6.80000000001 4.0 0.0
6.70000000001 4.0 0.0
6.60000000001 4.0 0.0
6.50000000001 4.0 0.0
6.40000000001 4.0 0.0
6.30000000002 4.0 0.0
6.20000000002 4.0 0.0
6.10000000002 4.0 0.0
6.00000000002 4.0 0.0
5.90000000002 4.0 0.0
5.80000000002 4.0 0.0
5.70000000002 4.0 0.0
5.60000000002 4.0 0.0
5.50000000002 4.0 0.0
5.40000000002 4.0 0.0
5.30000000001 4.0 0.0
5.20000000001 4.0 0.0
5.10000000001 4.0 0.0
5.00000000001 4.0 0.0
4.90000000001 4.0 0.0
4.80000000001 4.0 0.0
4.70000000001 4.0 0.0
4.60000000001 4.0 0.0
4.50000000001 4.0 0.0
4.40000000001 4.0 0.0
4.30000000001 4.0 0.0
4.20000000001 4.0 0.0
4.10000000001 4.0 0.0
4.00000000001 4.0 0.0
3.90000000001 4.0 0.0
3.80000000001 4.0 0.0
3.70000000001 4.0 0.0
3.60000000001 4.0 0.0
3.50000000001 4.0 0.0
3.40000000001 4.0 0.0
3.30000000001 4.0 0.0
3.20000000001 4.0 0.0
3.10000000001 4.0 0.0
3.00000000001 4.0 0.0
2.90000000001 4.0 0.0
2.80000000001 4.0 0.0
2.70000000001 4.0 0.0
2.60000000001 4.0 0.0
2.50000000001 4.0 0.0
2.40000000001 4.0 0.0
2.30000000001 4.0 0.0
2.20000000001 4.0 0.0
2.10000000001 4.0 0.0
2.00000000001 4.0 0.0
1.90000000001 4.0 0.0
1.80000000001 4.0 0.0
1.7 4.0 0.0
1.6 4.0 0.0
1.5 4.0 0.0
1.4 4.0 0.0
1.3 4.0 0.0
1.2 4.0 0.0
1.1 4.0 0.0
1.0 4.0 0.0
0.900000000003 4.0 0.0
0.800000000002 4.0 0.0
0.700000000002 4.0 0.0
0.600000000002 4.0 0.0
0.500000000001 4.0 0.0
0.400000000001 4.0 0.0
0.300000000001 4.0 0.0
0.200000000001 4.0 0.0
0.1 4.0 0.0
0.0 3.86666666667 0.0
0.0 3.73333333333 0.0
0.0 3.6 0.0
0.0 3.46666666666 0.0
0.0 3.33333333333 0.0
0.0 3.2 0.0
0.0 3.06666666667 0.0
0.0 2.93333333334 0.0
0.0 2.8 0.0
0.0 2.66666666667 0.0
0.0 2.53333333334 0.0
0.0 2.40000000001 0.0
0.0 2.26666666667 0.0
0.0 2.13333333334 0.0
0.0 2.00000000001 0.0
0.0 1.86666666667 0.0
0.0 1.73333333334 0.0
0.0 1.60000000001 0.0
0.0 1.46666666667 0.0
0.0 1.33333333334 0.0
0.0 1.2 0.0
0.0 1.06666666667 0.0
0.0 0.933333333337 0.0
0.0 0.800000000003 0.0
0.0 0.666666666669 0.0
0.0 0.533333333336 0.0
0.0 0.400000000002 0.0
0.0 0.266666666668 0.0
0.0 0.133333333334 0.0
11.9 3.86666666667 0.0
11.9 3.73333333333 0.0
11.9 3.6 0.0
11.9 3.46666666667 0.0
11.9 3.33333333333 0.0
11.9 3.2 0.0
11.9 3.06666666666 0.0
11.9 2.93333333333 0.0
11.9 2.8 0.0
11.9 2.66666666666 0.0
11.9 2.53333333333 0.0
11.9 2.4 0.0
11.9 2.26666666666 0.0
11.9 2.13333333333 0.0
11.9 1.99999999999 0.0
11.9 1.86666666666 0.0
11.9 1.73333333333 0.0
11.9 1.6 0.0
11.9 1.46666666666 0.0
11.9 1.33333333333 0.0
11.9 1.2 0.0
11.9 1.06666666666 0.0
11.9 0.933333333331 0.0
11.9 0.799999999998 0.0
11.9 0.666666666665 0.0
11.9 0.533333333332 0.0
11.9 0.399999999999 0.0
11.9 0.266666666666 0.0
11.9 0.133333333333 0.0
11.8 3.86666666667 0.0
11.8 3.73333333333 0.0
11.8 3.6 0.0
11.8 3.46666666667 0.0
11.8 3.33333333333 0.0
11.8 3.2 0.0
11.8 3.06666666666 0.0
11.8 2.93333333333 0.0
11.8 2.8 0.0
11.8 2.66666666666 0.0
11.8 2.53333333333 0.0
11.8 2.4 0.0
11.8 2.26666666666 0.0
11.8 2.13333333333 0.0
11.8 1.99999999999 0.0
11.8 1.86666666666 0.0
11.8 1.73333333333 0.0
11.8 1.6 0.0
11.8 1.46666666666 0.0
11.8 1.33333333333 0.0
11.8 1.2 0.0
11.8 1.06666666666 0.0
11.8 0.933333333331 0.0
11.8 0.799999999998 0.0
11.8 0.666666666665 0.0
11.8 0.533333333332 0.0
11.8 0.399999999999 0.0
11.8 0.266666666666 0.0
11.8 0.133333333333 0.0
11.7 3.86666666667 0.0
11.7 3.73333333333 0.0
11.7 3.6 0.0
11.7 3.46666666667 0.0
11.7 3.33333333333 0.0
11.7 3.2 0.0
11.7 3.06666666666 0.0
11.7 2.93333333333 0.0
11.7 2.8 0.0
11.7 2.66666666666 0.0
11.7 2.53333333333 0.0
11.7 2.4 0.0
11.7 2.26666666666 0.0
11.7 2.13333333333 0.0
11.7 2.0 0.0
11.7 1.86666666666 0.0
11.7 1.73333333333 0.0
11.7 1.6 0.0
11.7 1.46666666666 0.0
11.7 1.33333333333 0.0
11.7 1.2 0.0
11.7 1.06666666666 0.0
11.7 0.933333333331 0.0
11.7 0.799999999998 0.0
11.7 0.666666666665 0.0
11.7 0.533333333332 0.0
11.7 0.399999999999 0.0
11.7 0.266666666666 0.0
11.7 0.133333333333 0.0
11.6 3.86666666667 0.0
11.6 3.73333333333 0.0
11.6 3.6 0.0
11.6 3.46666666667 0.0
11.6 3.33333333333 0.0
11.6 3.2 0.0
11.6 3.06666666666 0.0
11.6 2.93333333333 0.0
11.6 2.8 0.0
11.6 2.66666666666 0.0
11.6 2.53333333333 0.0
11.6 2.4 0.0
11.6 2.26666666666 0.0
11.6 2.13333333333 0.0
11.6 2.0 0.0
11.6 1.86666666666 0.0
11.6 1.73333333333 0.0
11.6 1.6 0.0
11.6 1.46666666666 0.0
11.6 1.33333333333 0.0
11.6 1.2 0.0
11.6 1.06666666666 0.0
11.6 0.933333333331 0.0
11.6 0.799999999998 0.0
11.6 0.666666666665 0.0
11.6 0.533333333332 0.0
11.6 0.399999999999 0.0
11.6 0.266666666666 0.0
11.6 0.133333333333 0.0
11.5 3.86666666667 0.0
11.5 3.73333333333 0.0
11.5 3.6 0.0
11.5 3.46666666667 0.0
11.5 3.33333333333 0.0
11.5 3.2 0.0
11.5 3.06666666666 0.0
11.5 2.93333333333 0.0
11.5 2.8 0.0
11.5 2.66666666666 0.0
11.5 2.53333333333 0.0
11.5 2.4 0.0
11.5 2.26666666666 0.0
11.5 2.13333333333 0.0
11.5 2.0 0.0
11.5 1.86666666666 0.0
11.5 1.73333333333 0.0
11.5 1.6 0.0
11.5 1.46666666666 0.0
11.5 1.33333333333 0.0
11.5 1.2 0.0
11.5 1.06666666666 0.0
11.5 0.933333333331 0.0
11.5 0.799999999998 0.0
11.5 0.666666666665 0.0
11.5 0.533333333332 0.0
11.5 0.399999999999 0.0
11.5 0.266666666666 0.0
11.5 0.133333333333 0.0
11.4 3.86666666667 0.0
11.4 3.73333333333 0.0
11.4 3.6 0.0
11.4 3.46666666667 0.0
11.4 3.33333333333 0.0
11.4 3.2 0.0
11.4 3.06666666666 0.0
11.4 2.93333333333 0.0
11.4 2.8 0.0
11.4 2.66666666666 0.0
11.4 2.53333333333 0.0
11.4 2.4 0.0
11.4 2.26666666666 0.0
11.4 2.13333333333 0.0
11.4 2.0 0.0
11.4 1.86666666666 0.0
11.4 1.73333333333 0.0
11.4 1.6 0.0
11.4 1.46666666666 0.0
11.4 1.33333333333 0.0
11.4 1.2 0.0
11.4 1.06666666666 0.0
11.4 0.933333333331 0.0
11.4 0.799999999998 0.0
11.4 0.666666666665 0.0
11.4 0.533333333333 0.0
11.4 0.399999999999 0.0
11.4 0.266666666666 0.0
11.4 0.133333333333 0.0
11.3 3.86666666667 0.0
11.3 3.73333333333 0.0
11.3 3.6 0.0
11.3 3.46666666667 0.0
11.3 3.33333333333 0.0
11.3 3.2 0.0
11.3 3.06666666666 0.0
11.3 2.93333333333 0.0
11.3 2.8 0.0
[...]
POINT_DATA 3751
VECTORS Displacement float
0.0 0.0 0
0.0 0.0 0
-0.00299061000489 0.000971782815908 0
-0.0357434127873 -0.100718229371 0
0.0 0.0 0
0.0 0.0 0
0.0 0.0 0
0.0 0.0 0
0.0 0.0 0
0.0 0.0 0
0.0 0.0 0
0.0 0.0 0
0.0 0.0 0
0.0 0.0 0
0.0 0.0 0
0.0 0.0 0
0.0 0.0 0
0.0 0.0 0
0.0 0.0 0
0.0 0.0 0
0.0 0.0 0
0.0 0.0 0
0.0 0.0 0
0.0 0.0 0
0.0 0.0 0
0.0 0.0 0
0.0 0.0 0
0.0 0.0 0
0.0 0.0 0
0.0 0.0 0
0.0 0.0 0
0.0 0.0 0
0.0 0.0 0
0.0 0.0 0
0.0 0.0 0
0.0 0.0 0
0.0 0.0 0
0.0 0.0 0
0.0 0.0 0
0.0 0.0 0
0.0 0.0 0
0.0 0.0 0
0.0 0.0 0
0.0 0.0 0
0.0 0.0 0
0.0 0.0 0
0.0 0.0 0
0.0 0.0 0
0.0 0.0 0
0.0 0.0 0
0.0 0.0 0
0.0 0.0 0
0.0 0.0 0
0.0 0.0 0
0.0 0.0 0
0.0 0.0 0
0.0 0.0 0
0.0 0.0 0
0.0 0.0 0
0.0 0.0 0
0.0 0.0 0
0.0 0.0 0
0.0 0.0 0
0.0 0.0 0
0.0 0.0 0
0.0 0.0 0
0.0 0.0 0
0.0 0.0 0
0.0 0.0 0
0.0 0.0 0
0.0 0.0 0
0.0 0.0 0
0.0 0.0 0
0.0 0.0 0
0.0 0.0 0
0.0 0.0 0
0.0 0.0 0
0.0 0.0 0
0.0 0.0 0
0.0 0.0 0
0.0 0.0 0
0.0 0.0 0
0.0 0.0 0
0.0 0.0 0
0.0 0.0 0
0.0 0.0 0
0.0 0.0 0
0.0 0.0 0
0.0 0.0 0
0.0 0.0 0
0.0 0.0 0
0.0 0.0 0
0.0 0.0 0
0.0 0.0 0
0.0 0.0 0
0.0 0.0 0
0.0 0.0 0
0.0 0.0 0
0.0 0.0 0
0.0 0.0 0
0.0 0.0 0
0.0 0.0 0
0.0 0.0 0
0.0 0.0 0
0.0 0.0 0
0.0 0.0 0
0.0 0.0 0
0.0 0.0 0
0.0 0.0 0
0.0 0.0 0
0.0 0.0 0
0.0 0.0 0
0.0 0.0 0
0.0 0.0 0
0.0 0.0 0
0.0 0.0 0
0.0 0.0 0
0.0 0.0 0
0.0 0.0 0
0.0 0.0 0
0.0 0.0 0
0.0 0.0 0
0.0 0.0 0
-0.000225291091978 0.000210755946685 0
-0.000379838825051 0.000350691918345 0
-0.000528123742883 0.000459188208488 0
-0.000668597645685 0.000550233262226 0
-0.000804641930415 0.000627738572118 0
-0.000936751285027 0.000694313061404 0
-0.00106524076847 0.000751582510227 0
-0.00119016016213 0.000800747154888 0
-0.00131147453768 0.000842732122638 0
-0.00142910148492 0.000878291138111 0
-0.00154293976967 0.000908062298443 0
-0.00165288321196 0.00093260464207 0
-0.00175882983446 0.000952422527353 0
-0.0018606883198 0.000967982860158 0
-0.00195838340303 0.000979727604483 0
-0.00205186094151 0.000988083030803 0
-0.00214109310559 0.000993466532808 0
-0.00222608394517 0.00099629149106 0
-0.00230687549173 0.000996970429698 0
-0.00238355450075 0.000995916541893 0
-0.00245625990432 0.00099354350816 0
-0.00252519100824 0.000990263363711 0
-0.00259061640697 0.000986481944855 0
-0.00265288345085 0.000982591094537 0
-0.00271242775773 0.000978956209108 0
-0.00276978141244 0.000975896625091 0
-0.00282557607259 0.000973654173892 0
-0.00288053020787 0.000972341163343 0
-0.00293538204424 0.000971852452405 0
-0.00299059339918 0.000930238664726 0
-0.00299040675192 0.000888439788879 0
-0.0029898348268 0.000846509423562 0
-0.00298876296525 0.000804731323251 0
-0.0029871662294 0.000763421800459 0
-0.00298508424495 0.000722886663617 0
-0.00298260097039 0.000683405591676 0
-0.0029798303214 0.000645227128789 0
-0.00297690620632 0.000608568193179 0
-0.00297397558555 0.00057361552655 0
-0.00297119359676 0.000540527954132 0
-0.00296872011883 0.00050943892811 0
-0.00296671736578 0.00048045910001 0
-0.00296534823803 0.000453678796485 0
-0.0029647752452 0.000429170336497 0
-0.0029651598691 0.000406990160177 0
-0.00296666227237 0.000387180756489 0
-0.00296944128211 0.000369772385698 0
-0.00297365459457 0.0003547845974 0
-0.00297945915898 0.000342227547438 0
-0.00298701170691 0.000332103118396 0
-0.00299646940002 0.000324405849066 0
-0.00300799057402 0.000319123678619 0
-0.00302173556041 0.000316238511291 0
-0.00303786757071 0.000315726607292 0
-0.00305655363045 0.000317558805469 0
-0.00307796555226 0.000321700582888 0
-0.00310228093916 0.000328111956122 0
-0.0031296842108 0.00033674722852 0
-0.00316036764641 0.000347554587171 0
-0.00319453243936 0.000360475552663 0
-0.0032323897592 0.00037544428407 0
-0.00327416181756 0.000392386740918 0
-0.00332008293477 0.000411219703141 0
-0.00337040060474 0.000431849649352 0
-0.00342537655553 0.000454171492999 0
-0.00348528780344 0.000478067175291 0
-0.00355042769836 0.000503404113058 0
-0.00362110695806 0.000530033499058 0
-0.00369765468902 0.000557788451582 0
-0.00378041939118 0.000586482009587 0
-0.00386976994359 0.000615904969003 0
-0.00396609656763 0.000645823555293 0
-0.00406981176426 0.000675976926819 0
-0.00418135122091 0.000706074503041 0
-0.00430117468362 0.000735793111116 0
-0.00442976678902 0.000764773943986 0
-0.00456763785053 0.000792619322567 0
-0.00471532459247 0.000818889254242 0
-0.00487339082508 0.000843097779356 0
-0.00504242805296 0.000864709096965 0
-0.00522305600862 0.000883133460589 0
-0.00541592310245 0.000897722834128 0
-0.0056217067795 0.000907766297534 0
-0.00584111377291 0.00091248519108 0
-0.00607488024323 0.000911027986276 0
-0.00632377179213 0.000902464870469 0
-0.00658858333842 0.000885782031035 0
-0.00687013884355 0.000859875623634 0
-0.00716929087345 0.000823545407322 0
-0.00748691998242 0.000775488027225 0
-0.00782393390478 0.000714289922986 0
-0.00818126653901 0.000638419838122 0
-0.00855987670862 0.000546220901715 0
-0.00896074668343 0.000435902249304 0
-0.00938488044434 0.000305530144351 0
-0.00983330167394 0.000153018554908 0
-0.0103070514547 -2.38808680394e-05 0
-0.0108071856558 -0.000227589474041 0
-0.011334771988 -0.000460713034049 0
-0.0118908867063 -0.000726053989024 0
-0.0124766109376 -0.00102662463459 0
-0.0130930266078 -0.00136566137204 0
-0.013741211945 -0.00174664018279 0
-0.0144222365261 -0.00217329351654 0
-0.0151371558367 -0.00264962882353 0
-0.015887005306 -0.00317994901193 0
-0.0166727937723 -0.00376887517267 0
-0.0174954963308 -0.00442137199194 0
-0.0183560464998 -0.00514277636738 0
-0.0192553276332 -0.00593882986594 0
-0.0201941634888 -0.00681571581469 0
-0.0211733078395 -0.00778010201179 0
-0.0221934329898 -0.00883919029602 0
-0.0232551170193 -0.0100007745387 0
-0.0243588295335 -0.0112733090461 0
-0.0255049156378 -0.0126659899213 0
-0.026693577773 -0.0141888526776 0
-0.0279248549465 -0.0158528904043 0
-0.02919859876 -0.0176701981494 0
-0.0305144454523 -0.0196541510811 0
-0.0318717829484 -0.0218196266375 0
-0.0332697115946 -0.0241832846493 0
-0.0347069968669 -0.0267639248804 0
-0.0361820118377 -0.0295829494834 0
-0.0376926665873 -0.0326649699696 0
-0.0392363211453 -0.0360386169046 0
-0.0408096782586 -0.0397376398008 0
-0.0424086534664 -0.0438024321769 0
-0.0440282253853 -0.0482821947489 0
-0.0456622919282 -0.0532380920983 0
-0.0473036081372 -0.058747965471 0
-0.0489441884797 -0.0649138973418 0
-0.0505765247479 -0.0718731308737 0
-0.0522026456365 -0.0798272940519 0
-0.0538326934176 -0.089020518894 0
-0.0557141251786 -0.100277072096 0
-0.0573236906427 -0.110386169057 0
-0.0504071454852 -0.147026122977 0
-0.0453937514663 -0.171410354216 0
-0.041746265748 -0.184303175029 0
-0.0372015848324 -0.190775072065 0
-0.0344407669556 -0.17914191559 0
-0.0316025786211 -0.15605675764 0
-0.0280707768634 -0.120038365654 0
-0.0315421077266 -0.118478336622 0
-0.0339742494971 -0.112940381011 0
-0.0351637358392 -0.10873585603 0
-0.0356613167503 -0.104813525919 0
-0.0414804956153 -0.100940837373 0
-0.0470154688065 -0.101819686976 0
-0.051063937044 -0.103200402309 0
-0.0530159005159 -0.104366267149 0
-0.0530327043842 -0.104706020688 0
-0.0516254737965 -0.103958567924 0
-0.0493275295622 -0.102142151131 0
-0.0465588726147 -0.0994160789337 0
-0.043608311776 -0.0959774467213 0
-0.0406594884687 -0.0920117464605 0
-0.0378215247987 -0.0876747430024 0
-0.0351540768825 -0.0830898175226 0
-0.0326851127713 -0.0783514624678 0
-0.030422767028 -0.0735305444165 0
-0.0283629406099 -0.0686794589274 0
-0.0264940222394 -0.063836524294 0
-0.0247997036088 -0.0590294878455 0
-0.0232605296102 -0.0542782200995 0
-0.0218545822065 -0.0495967262156 0
-0.020557523335 -0.0449945959443 0
-0.0193420924883 -0.0404779768909 0
-0.0181770304545 -0.0360501054843 0
-0.0170252892071 -0.0317113338576 0
-0.0158410164525 -0.0274585163087 0
-0.0145650566811 -0.0232829558209 0
-0.0131140463253 -0.0191669545733 0
-0.0113732172314 -0.0150680783677 0
-0.00909653810728 -0.0109090550075 0
-0.00609390879988 -0.0063052465899 0
-0.00293540557256 0.000930303374968 0
-0.00288078209189 0.000930717512347 0
-0.00282610143962 0.000931633327164 0
-0.00277055871616 0.000933048836407 0
-0.00271339123453 0.000934853604861 0
-0.00265393801614 0.000936847789224 0
-0.00259164811129 0.00093876697128 0
-0.00252607409113 0.000940302670249 0
-0.00245686156164 0.000941117497146 0
-0.00238373804596 0.000940855837256 0
-0.00230650236083 0.000939151076755 0
-0.00222501482511 0.000935630148123 0
-0.00213918835873 0.000929915924343 0
-0.00204898042556 0.000921627795783 0
-0.00195438573066 0.000910380608397 0
-0.00185542955441 0.000895782007154 0
-0.00175216156793 0.000877428092171 0
-0.00164464990666 0.000854897129766 0
-0.001532975151 0.000827740828868 0
-0.0014172236334 0.000795472329238 0
-0.00129747901262 0.000757549438574 0
-0.00117381030816 0.000713350536812 0
-0.00104625206899 0.000662138517489 0
-0.000914771481158 0.000603003619142 0
-0.000779191384355 0.000534767082045 0
-0.000639089938122 0.000455805335298 0
-0.00049321960328 0.000363679853283 0
-0.000339777087616 0.000254619318395 0
-0.000167427808522 0.000121716791682 0
-0.00293526761446 0.000888308750152 0
-0.00288089404115 0.000888454365751 0
-0.0028264391806 0.000888937562004 0
-0.0027710631009 0.000889665651771 0
-0.00271398430412 0.000890488348168 0
-0.00265452663731 0.000891207548753 0
-0.0025921272611 0.000891583212488 0
-0.00252633015456 0.000891341979982 0
-0.00245677510924 0.00089018578046 0
-0.00238318596658 0.00088779905857 0
-0.00230535935708 0.000883854254479 0
-0.00222315432795 0.000878015564616 0
-0.00213648291711 0.00086994111634 0
-0.00204530161135 0.000859283683921 0
-0.00194960357792 0.000845690025086 0
-0.00184941152722 0.000828798850135 0
-0.00174477102186 0.000808237352464 0
-0.00163574397169 0.000783616122901 0
-0.00152240191755 0.000754522125782 0
-0.00140481844712 0.000720509209539 0
-0.00128305965543 0.00068108532845 0
-0.00115717052131 0.000635695237738 0
-0.00102715410207 0.000583696991826 0
-0.00089293347632 0.000524330233778 0
-0.000754295795506 0.000456679227045 0
-0.000610727105383 0.000379638166058 0
-0.000461404856963 0.000292084012501 0
-0.000304100461268 0.000193426154156 0
-0.000142154924649 9.24135223507e-05 0
-0.00293489420228 0.000846119733216 0
-0.0028808380606 0.000845992948702 0
-0.00282663948893 0.000846092417842 0
-0.00277141677346 0.00084627171033 0
-0.00271438539876 0.000846341729812 0
-0.00265486849802 0.000846090243645 0
-0.00259230140814 0.000845283413149 0
-0.00252622584889 0.000843667283641 0
-0.00245627966931 0.000840970860089 0
-0.0023821853732 0.0008369097304 0
-0.00230373884977 0.000831189388573 0
-0.00222079883381 0.000823507822507 0
-0.00213327723843 0.000813557184374 0
-0.00204113034241 0.000801024484201 0
-0.00194435074312 0.000785591295247 0
-0.00184295994561 0.000766932469356 0
-0.00173700141498 0.000744713852675 0
-0.00162653385468 0.000718588981922 0
-0.0015116243624 0.000688194748027 0
-0.00139234094137 0.00065314607995 0
-0.00126874352083 0.000613029925585 0
-0.0011408723392 0.000567399503471 0
-0.00100873134857 0.000515771568681 0
-0.000872267044189 0.000457635633313 0
-0.000731333665725 0.000392496308739 0
-0.000585713436209 0.000320043963268 0
-0.000435146329006 0.000240586934381 0
-0.000280865131256 0.000157035585566 0
-0.000130049186827 7.52978263066e-05 0
-0.00293427367632 0.000804072545083 0
-0.00288065085697 0.000803718559647 0
-0.00282677505971 0.000803527109462 0
-0.00277173495571 0.000803302487488 0
-0.00271474947946 0.000802824383256 0
-0.00265515148613 0.00080186329874 0
-0.00259238387614 0.000800182815391 0
-0.00252599333732 0.000797538437139 0
-0.00245562100074 0.000793677282283 0
-0.00238099177891 0.0007883388904 0
-0.00230190357805 0.000781256574155 0
-0.00221821698454 0.000772158795505 0
-0.00212984566595 0.00076077024002 0
-0.00203674754605 0.000746812419619 0
-0.00193891672352 0.000730003739597 0
-0.00183637605658 0.000710059040735 0
-0.00172917030341 0.000686688697247 0
-0.00161735967625 0.000659597448151 0
-0.00150101363722 0.000628483314226 0
-0.00138020474347 0.000593037301917 0
-0.00125500244547 0.000552945341318 0
-0.00112546700492 0.000507895482815 0
-0.000991645543173 0.000457597166804 0
-0.000853574809711 0.000401826893076 0
-0.000711318546431 0.000340538375764 0
-0.000565086305406 0.000274096890969 0
-0.000415753883686 0.000203862025503 0
-0.000266267269183 0.000132692093222 0
-0.000123821932501 6.42922628621e-05 0
-0.0029334254275 0.000762515932922 0
-0.00288039304329 0.000761994864892 0
-0.00282693365162 0.000761615074306 0
-0.0027721313526 0.000761129769544 0
-0.00271521713266 0.00076028926268 0
-0.00265554099134 0.000758846900762 0
-0.00259256110328 0.000756559943892 0
-0.0025258359596 0.000753187570396 0
-0.0024550155813 0.00074848888199 0
-0.00237983176622 0.000742221894228 0
-0.00230008805262 0.00073414339199 0
-0.00221564992445 0.000724009279492 0
-0.00212643555485 0.000711575107343 0
-0.00203240722596 0.000696596582757 0
-0.00193356347351 0.000678829991715 0
-0.00182993196253 0.000658032579253 0
-0.00172156309058 0.000633963066698 0
-0.00160852433877 0.000606382671273 0
-0.00149089547203 0.000575057300238 0
-0.00136876490457 0.000539762143502 0
-0.00124222804659 0.000500290911953 0
-0.00111138979814 0.000456473974127 0
-0.00097637623153 0.000408213274814 0
-0.000837369687863 0.000355549653878 0
-0.000694697722743 0.000298786060869 0
-0.000549068099316 0.00023871089384 0
-0.000402106371405 0.000176849363075 0
-0.000257275511104 0.000115435294775 0
-0.000120655920195 5.64860636083e-05 0
-0.00293239615176 0.000721778669507 0
-0.00288013678378 0.000721156997211 0
-0.00282720862046 0.000720689229913 0
-0.00277271775107 0.000720077486165 0
-0.00271591860566 0.000719042376125 0
-0.002656185386 0.000717319800081 0
-0.00259299797853 0.000714658905745 0
-0.00252593277385 0.000710819189519 0
-0.0024546541359 0.000705567644822 0
-0.00237890547032 0.000698676701489 0
-0.00229850002767 0.000689923084489 0
-0.00221331180314 0.000679087407068 0
-0.00212326682965 0.000665954268946 0
-0.00202833506306 0.0006503127022 0
-0.00192852299107 0.000631956921045 0
-0.00182386707365 0.000610687467097 0
-0.00171442814649 0.000586313010795 0
-0.00160028700754 0.000558653307367 0
-0.0014815416099 0.00052754417473 0
-0.00135830670949 0.00049284596359 0
-0.00123071772517 0.000454458004642 0
-0.00109894242663 0.000412343145999 0
-0.000963208268701 0.000366569107916 0
-0.000823861126619 0.000317375727547 0
-0.000681489160455 0.000265278060464 0
-0.00053716721043 0.000211186939118 0
-0.000392867583215 0.000156452799098 0
-0.000251940863553 0.000102612784289 0
-0.000119223597549 5.06499389556e-05 0
-0.00293125657434 0.000682157058978 0
-0.00287996330657 0.000681505646139 0
-0.00282769524624 0.000681045169353 0
-0.00277360269352 0.000680429730449 0
-0.00271697549125 0.00067935016639 0
-0.00265721930312 0.000677524378034 0
-0.00259384158396 0.000674692185788 0
-0.00252644207595 0.000670611273354 0
-0.00245470459257 0.000665053717399 0
-0.00237838882709 0.000657803319763 0
-0.00229732199604 0.000648653852821 0
-0.00221139051616 0.000637408147065 0
-0.00212053198129 0.0006238778864 0
-0.00202472767729 0.000607884014091 0
-0.00192399584247 0.000589257747227 0
-0.0018183858853 0.00056784233067 0
-0.00170797383124 0.000543495837406 0
-0.00159285941937 0.000516095564443 0
-0.00147316556746 0.000485544922326 0
-0.00134904150012 0.000451784227781 0
-0.00122067191559 0.000414807524383 0
-0.00108829662984 0.000374688454833 0
-0.000952248780658 0.000331618737171 0
-0.000813026027941 0.000285961592854 0
-0.000671416696487 0.000238312961651 0
-0.000528701815615 0.000189537294497 0
-0.000386916199892 0.000140697649268 0
-0.000249042172281 9.2772190853e-05 0
-0.000118842914039 4.61292674146e-05 0
-0.00293009730211 0.000643911617983 0
-0.00287996235973 0.00064330503004 0
-0.00282849008952 0.000642942297662 0
-0.00277489122687 0.000642434680163 0
-0.00271850171729 0.00064144425742 0
-0.00265876574869 0.000639670636641 0
-0.00259522385673 0.00063684339396 0
-0.00252750412153 0.000632716874136 0
-0.00245531454324 0.000627066177908 0
-0.0023784355964 0.000619684104587 0
-0.00229671269444 0.000610379028736 0
-0.00221004866901 0.000598973667271 0
-0.0021183965007 0.000585304667006 0
-0.00202175256451 0.000569222969901 0
-0.00192015066091 0.000550594990346 0
-0.00181365713649 0.000529304755826 0
-0.00170236749023 0.000505257318876 0
-0.00158640504978 0.000478383952886 0
-0.00146592264991 0.000448649907987 0
-0.00134110885728 0.000416065819112 0
-0.00121220133673 0.000380704159905 0
-0.00107951165919 0.000342722144461 0
-0.000943468402992 0.000302391488133 0
-0.000804688191206 0.000260131459877 0
-0.000664084226283 0.000216531659302 0
-0.000523010253143 0.000172332636684 0
-0.000383401265807 0.000128313949226 0
-0.000247804657998 8.50471961245e-05 0
-0.000119131096354 4.25474674916e-05 0
-0.00292902458475 0.000607267718628 0
-0.00288023159464 0.000606783656865 0
-0.00282969128475 0.000606605321157 0
-0.00277668541619 0.000606307224464 0
-0.00272060453771 0.000605524714186 0
-0.00266093769412 0.00060393932624 0
-0.00259726360808 0.00060126978589 0
-0.00252924329367 0.000597265936095 0
-0.00245661332637 0.000591704280953 0
-0.0023791792051 0.000584384658463 0
-0.00229680862507 0.000575127889199 0
-0.00220942475246 0.000563774336787 0
-0.00211699972758 0.000550183338566 0
-0.00201954868026 0.000534233497446 0
-0.00191712457672 0.000515823888608 0
-0.0018098142737 0.000494876327351 0
-0.00169773626594 0.00047133896328 0
-0.00158104081481 0.000445191605512 0
-0.00145991348614 0.000416453325778 0
-0.00133458367295 0.000385192977642 0
-0.0012053405027 0.000351543164062 0
-0.00107255964071 0.000315717547864 0
-0.000936745610765 0.000278029505367 0
-0.000798594205846 0.000238905838921 0
-0.000659075393307 0.000198881589423 0
-0.000519523765502 0.000158552563363 0
-0.000381696567261 0.000118458886567 0
-0.00024772375687 7.88916504235e-05 0
-0.000119859061113 3.96689059812e-05 0
-0.00292815651611 0.000572417894157 0
-0.00288087561863 0.000572136571273 0
-0.0028313988837 0.000572226430653 0
-0.00277908511576 0.000572231382879 0
-0.00272338558594 0.000571762695968 0
-0.00266383945444 0.000570484561472 0
-0.00260006818318 0.000568104576061 0
-0.00253176991453 0.000564367194071 0
-0.00245871384621 0.00055904898378 0
-0.00238073446287 0.000551955124562 0
-0.00229772560537 0.000542916909662 0
-0.00220963451233 0.000531790158964 0
-0.00211645607408 0.000518454503674 0
-0.00201822760236 0.000502813545381 0
-0.00191502446903 0.000484795941991 0
-0.00180695703508 0.0004643575375 0
-0.00169416940434 0.000441484725117 0
-0.00157684072242 0.000416199297242 0
-0.00145519002756 0.000388565054438 0
-0.00132948606815 0.000358696339249 0
-0.00120006401077 0.000326768268992 0
-0.00106735142383 0.000293027464697 0
-0.000931905854595 0.000257800059763 0
-0.000794464595384 0.000221490292766 0
-0.000656001874351 0.000184558363686 0
-0.000517777463139 0.000147462856964 0
-0.000381343590018 0.000110556660265 0
-0.00024846131969 7.39435385445e-05 0
-0.0001208821438 3.73372999132e-05 0
-0.00292761986257 0.00053952476076 0
-0.00288200486608 0.000539528264954 0
-0.00283371500013 0.000539967965346 0
-0.00278218869957 0.000540362829158 0
-0.00272694190076 0.000540302930929 0
-0.00266756794354 0.000539436201292 0
-0.00260373491423 0.000537459120248 0
-0.00253518183424 0.000534110096975 0
-0.00246171421813 0.000529164629265 0
-0.00238319919618 0.000522431719279 0
-0.00229956035312 0.000513751285228 0
-0.00221077248796 0.000502992451398 0
-0.00211685656419 0.000490052670597 0
-0.00201787517243 0.000474857676144 0
-0.00191392887878 0.000457362297622 0
-0.0018051538989 0.000437552210516 0
-0.00169172163815 0.000415446716094 0
-0.00157384078623 0.000391102641861 0
-0.00145176285743 0.00036461937019 0
-0.00132579230493 0.000336144762826 0
-0.00119630253001 0.000305881216482 0
-0.00106375903706 0.000274090066209 0
-0.000928750180404 0.000241090859304 0
-0.000792023586632 0.000207249703196 0
-0.000654521368197 0.000172948715884 0
-0.000517399139639 0.000138528670342 0
-0.000382004285316 0.000104202655882 0
-0.000249784045523 6.99529332467e-05 0
-0.000122104798607 3.54440088882e-05 0