# vtk DataFile Version 2.0
Generated with Solid Solver
ASCII
DATASET UNSTRUCTURED_GRID
POINTS 3751 float 
0.0 0.0 0.0
12.0 0.0 0.0
12.0 4.0 0.0
0.0 4.0 0.0
0.0999999999996 0.0 0.0
0.199999999999 0.0 0.0
0.299999999999 0.0 0.0
0.399999999998 0.0 0.0
0.499999999998 0.0 0.0
0.599999999997 0.0 0.0
0.699999999997 0.0 0.0
0.799999999996 0.0 0.0
0.899999999996 0.0 0.0
0.999999999996 0.0 0.0
1.1 0.0 0.0
1.2 0.0 0.0
1.29999999999 0.0 0.0
1.39999999999 0.0 0.0
1.49999999999 0.0 0.0
1.59999999999 0.0 0.0
1.69999999999 0.0 0.0
1.79999999999 0.0 0.0
1.89999999999 0.0 0.0
1.99999999999 0.0 0.0
2.09999999999 0.0 0.0
2.19999999999 0.0 0.0
2.29999999999 0.0 0.0
2.39999999999 0.0 0.0
2.49999999999 0.0 0.0
2.59999999999 0.0 0.0
2.69999999999 0.0 0.0
2.79999999999 0.0 0.0
2.89999999999 0.0 0.0
2.99999999999 0.0 0.0
3.09999999999 0.0 0.0
3.19999999999 0.0 0.0
3.29999999999 0.0 0.0
3.39999999999 0.0 0.0
3.49999999999 0.0 0.0
3.59999999999 0.0 0.0
3.69999999999 0.0 0.0
3.79999999998 0.0 0.0
3.89999999998 0.0 0.0
3.99999999998 0.0 0.0
4.09999999998 0.0 0.0
4.19999999998 0.0 0.0
4.29999999998 0.0 0.0
4.39999999998 0.0 0.0
4.49999999998 0.0 0.0
4.59999999998 0.0 0.0
4.69999999998 0.0 0.0
4.79999999998 0.0 0.0
4.89999999998 0.0 0.0
4.99999999998 0.0 0.0
5.09999999998 0.0 0.0
5.19999999998 0.0 0.0
5.29999999998 0.0 0.0
5.39999999998 0.0 0.0
5.49999999998 0.0 0.0
5.59999999998 0.0 0.0
5.69999999998 0.0 0.0
5.79999999998 0.0 0.0
5.89999999998 0.0 0.0
5.99999999998 0.0 0.0
6.09999999998 0.0 0.0
6.19999999998 0.0 0.0
6.29999999998 0.0 0.0
6.39999999998 0.0 0.0
6.49999999998 0.0 0.0
6.59999999998 0.0 0.0
6.69999999998 0.0 0.0
6.79999999998 0.0 0.0
6.89999999998 0.0 0.0
6.99999999998 0.0 0.0
7.09999999998 0.0 0.0
7.19999999998 0.0 0.0
7.29999999998 0.0 0.0
7.39999999998 0.0 0.0
7.49999999998 0.0 0.0
7.59999999998 0.0 0.0
7.69999999998 0.0 0.0
7.79999999998 0.0 0.0
7.89999999998 0.0 0.0
7.99999999998 0.0 0.0
8.09999999999 0.0 0.0
8.19999999999 0.0 0.0
8.29999999999 0.0 0.0
8.39999999999 0.0 0.0
8.49999999999 0.0 0.0
8.59999999999 0.0 0.0
8.69999999999 0.0 0.0
8.79999999999 0.0 0.0
8.89999999999 0.0 0.0
8.99999999999 0.0 0.0
9.09999999999 0.0 0.0
9.19999999999 0.0 0.0
9.29999999999 0.0 0.0
9.39999999999 0.0 0.0
9.49999999999 0.0 0.0
9.59999999999 0.0 0.0
9.69999999999 0.0 0.0
9.79999999999 0.0 0.0
9.89999999999 0.0 0.0
9.99999999999 0.0 0.0
10.1 0.0 0.0
10.2 0.0 0.0
10.3 0.0 0.0
10.4 0.0 0.0
10.5 0.0 0.0
10.6 0.0 0.0
10.7 0.0 0.0
10.8 0.0 0.0
10.9 0.0 0.0
11.0 0.0 0.0
11.1 0.0 0.0
11.2 0.0 0.0
11.3 0.0 0.0
11.4 0.0 0.0
11.5 0.0 0.0
11.6 0.0 0.0
11.7 0.0 0.0
11.8 0.0 0.0
11.9 0.0 0.0
12.0 0.133333333333 0.0
12.0 0.266666666666 0.0
12.0 0.399999999999 0.0
12.0 0.533333333332 0.0
12.0 0.666666666665 0.0
12.0 0.799999999998 0.0
12.0 0.933333333331 0.0
12.0 1.06666666666 0.0
12.0 1.2 0.0
12.0 1.33333333333 0.0
12.0 1.46666666666 0.0
12.0 1.6 0.0
12.0 1.73333333333 0.0
12.0 1.86666666666 0.0
12.0 1.99999999999 0.0
12.0 2.13333333333 0.0
12.0 2.26666666666 0.0
12.0 2.4 0.0
12.0 2.53333333333 0.0
12.0 2.66666666666 0.0
12.0 2.8 0.0
12.0 2.93333333333 0.0
12.0 3.06666666666 0.0
12.0 3.2 0.0
12.0 3.33333333333 0.0
12.0 3.46666666667 0.0
12.0 3.6 0.0
12.0 3.73333333333 0.0
12.0 3.86666666667 0.0
11.9 4.0 0.0
11.8 4.0 0.0
11.7 4.0 0.0
11.6 4.0 0.0
11.5 4.0 0.0
11.4 4.0 0.0
11.3 4.0 0.0
11.2 4.0 0.0
11.1 4.0 0.0
11.0 4.0 0.0
10.9 4.0 0.0
10.8 4.0 0.0
10.7 4.0 0.0
10.6 4.0 0.0
10.5 4.0 0.0
10.4 4.0 0.0
10.3 4.0 0.0
10.2 4.0 0.0
10.1 4.0 0.0
10.0 4.0 0.0
9.90000000001 4.0 0.0
9.80000000001 4.0 0.0
9.70000000001 4.0 0.0
9.60000000001 4.0 0.0
9.50000000001 4.0 0.0
9.40000000001 4.0 0.0
9.30000000001 4.0 0.0
9.20000000001 4.0 0.0
9.10000000001 4.0 0.0
9.00000000001 4.0 0.0
8.90000000001 4.0 0.0
8.80000000001 4.0 0.0
8.70000000001 4.0 0.0
8.60000000001 4.0 0.0
8.50000000001 4.0 0.0
8.40000000001 4.0 0.0
8.30000000001 4.0 0.0
8.20000000001 4.0 0.0
8.10000000001 4.0 0.0
8.00000000001 4.0 0.0
7.90000000001 4.0 0.0
7.80000000001 4.0 0.0
7.70000000001 4.0 0.0
7.60000000001 4.0 0.0
7.50000000001 4.0 0.0
7.40000000001 4.0 0.0
7.30000000001 4.0 0.0
7.20000000001 4.0 0.0
7.10000000001 4.0 0.0
7.00000000001 4.0 0.0
6.90000000001 4.0 0.0
6.80000000001 4.0 0.0
6.70000000001 4.0 0.0
6.60000000001 4.0 0.0
6.50000000001 4.0 0.0
6.40000000001 4.0 0.0
6.30000000002 4.0 0.0
6.20000000002 4.0 0.0
6.10000000002 4.0 0.0
6.00000000002 4.0 0.0
5.90000000002 4.0 0.0
5.80000000002 4.0 0.0
5.70000000002 4.0 0.0
5.60000000002 4.0 0.0
5.50000000002 4.0 0.0
5.40000000002 4.0 0.0
5.30000000001 4.0 0.0
5.20000000001 4.0 0.0
5.10000000001 4.0 0.0
5.00000000001 4.0 0.0
4.90000000001 4.0 0.0
4.80000000001 4.0 0.0
4.70000000001 4.0 0.0
4.60000000001 4.0 0.0
4.50000000001 4.0 0.0
4.40000000001 4.0 0.0
4.30000000001 4.0 0.0
4.20000000001 4.0 0.0
4.10000000001 4.0 0.0
4.00000000001 4.0 0.0
3.90000000001 4.0 0.0
3.80000000001 4.0 0.0
3.70000000001 4.0 0.0
3.60000000001 4.0 0.0
3.50000000001 4.0 0.0
3.40000000001 4.0 0.0
3.30000000001 4.0 0.0
3.20000000001 4.0 0.0
3.10000000001 4.0 0.0
3.00000000001 4.0 0.0
2.90000000001 4.0 0.0
2.80000000001 4.0 0.0
2.70000000001 4.0 0.0
2.60000000001 4.0 0.0
2.50000000001 4.0 0.0
2.40000000001 4.0 0.0
2.30000000001 4.0 0.0
2.20000000001 4.0 0.0
2.10000000001 4.0 0.0
2.00000000001 4.0 0.0
1.90000000001 4.0 0.0
1.80000000001 4.0 0.0
1.7 4.0 0.0
1.6 4.0 0.0
1.5 4.0 0.0
1.4 4.0 0.0
1.3 4.0 0.0
1.2 4.0 0.0
1.1 4.0 0.0
1.0 4.0 0.0
0.900000000003 4.0 0.0
0.800000000002 4.0 0.0
0.700000000002 4.0 0.0
0.600000000002 4.0 0.0
0.500000000001 4.0 0.0
0.400000000001 4.0 0.0
0.300000000001 4.0 0.0
0.200000000001 4.0 0.0
0.1 4.0 0.0
0.0 3.86666666667 0.0
0.0 3.73333333333 0.0
0.0 3.6 0.0
0.0 3.46666666666 0.0
0.0 3.33333333333 0.0
0.0 3.2 0.0
0.0 3.06666666667 0.0
0.0 2.93333333334 0.0
0.0 2.8 0.0
0.0 2.66666666667 0.0
0.0 2.53333333334 0.0
0.0 2.40000000001 0.0
0.0 2.26666666667 0.0
0.0 2.13333333334 0.0
0.0 2.00000000001 0.0
0.0 1.86666666667 0.0
0.0 1.73333333334 0.0
0.0 1.60000000001 0.0
0.0 1.46666666667 0.0
0.0 1.33333333334 0.0
0.0 1.2 0.0
0.0 1.06666666667 0.0
0.0 0.933333333337 0.0
0.0 0.800000000003 0.0
0.0 0.666666666669 0.0
0.0 0.533333333336 0.0
0.0 0.400000000002 0.0
0.0 0.266666666668 0.0
0.0 0.133333333334 0.0
11.9 3.86666666667 0.0
11.9 3.73333333333 0.0
11.9 3.6 0.0
11.9 3.46666666667 0.0
11.9 3.33333333333 0.0
11.9 3.2 0.0
11.9 3.06666666666 0.0
11.9 2.93333333333 0.0
11.9 2.8 0.0
11.9 2.66666666666 0.0
11.9 2.53333333333 0.0
11.9 2.4 0.0
11.9 2.26666666666 0.0
11.9 2.13333333333 0.0
11.9 1.99999999999 0.0
11.9 1.86666666666 0.0
11.9 1.73333333333 0.0
11.9 1.6 0.0
11.9 1.46666666666 0.0
11.9 1.33333333333 0.0
11.9 1.2 0.0
11.9 1.06666666666 0.0
11.9 0.933333333331 0.0
11.9 0.799999999998 0.0
11.9 0.666666666665 0.0
11.9 0.533333333332 0.0
11.9 0.399999999999 0.0
11.9 0.266666666666 0.0
11.9 0.133333333333 0.0
11.8 3.86666666667 0.0
11.8 3.73333333333 0.0
11.8 3.6 0.0
11.8 3.46666666667 0.0
11.8 3.33333333333 0.0
11.8 3.2 0.0
11.8 3.06666666666 0.0
11.8 2.93333333333 0.0
11.8 2.8 0.0
11.8 2.66666666666 0.0
11.8 2.53333333333 0.0
11.8 2.4 0.0
11.8 2.26666666666 0.0
11.8 2.13333333333 0.0
11.8 1.99999999999 0.0
11.8 1.86666666666 0.0
11.8 1.73333333333 0.0
11.8 1.6 0.0
11.8 1.46666666666 0.0
11.8 1.33333333333 0.0
11.8 1.2 0.0
11.8 1.06666666666 0.0
11.8 0.933333333331 0.0
11.8 0.799999999998 0.0
11.8 0.666666666665 0.0
11.8 0.533333333332 0.0
11.8 0.399999999999 0.0
11.8 0.266666666666 0.0
11.8 0.133333333333 0.0
11.7 3.86666666667 0.0
11.7 3.73333333333 0.0
11.7 3.6 0.0
11.7 3.46666666667 0.0
11.7 3.33333333333 0.0
11.7 3.2 0.0
11.7 3.06666666666 0.0
11.7 2.93333333333 0.0
11.7 2.8 0.0
11.7 2.66666666666 0.0
11.7 2.53333333333 0.0
11.7 2.4 0.0
11.7 2.26666666666 0.0
11.7 2.13333333333 0.0
11.7 2.0 0.0
11.7 1.86666666666 0.0
11.7 1.73333333333 0.0
11.7 1.6 0.0
11.7 1.46666666666 0.0
11.7 1.33333333333 0.0
11.7 1.2 0.0
11.7 1.06666666666 0.0
11.7 0.933333333331 0.0
11.7 0.799999999998 0.0
11.7 0.666666666665 0.0
11.7 0.533333333332 0.0
11.7 0.399999999999 0.0
11.7 0.266666666666 0.0
11.7 0.133333333333 0.0
11.6 3.86666666667 0.0
11.6 3.73333333333 0.0
11.6 3.6 0.0
11.6 3.46666666667 0.0
11.6 3.33333333333 0.0
11.6 3.2 0.0
11.6 3.06666666666 0.0
11.6 2.93333333333 0.0
11.6 2.8 0.0
11.6 2.66666666666 0.0
11.6 2.53333333333 0.0
11.6 2.4 0.0
11.6 2.26666666666 0.0
11.6 2.13333333333 0.0
11.6 2.0 0.0
11.6 1.86666666666 0.0
11.6 1.73333333333 0.0
11.6 1.6 0.0
11.6 1.46666666666 0.0
11.6 1.33333333333 0.0
11.6 1.2 0.0
11.6 1.06666666666 0.0
11.6 0.933333333331 0.0
11.6 0.799999999998 0.0
11.6 0.666666666665 0.0
11.6 0.533333333332 0.0
11.6 0.399999999999 0.0
11.6 0.266666666666 0.0
11.6 0.133333333333 0.0
11.5 3.86666666667 0.0
11.5 3.73333333333 0.0
11.5 3.6 0.0
11.5 3.46666666667 0.0
11.5 3.33333333333 0.0
11.5 3.2 0.0
11.5 3.06666666666 0.0
11.5 2.93333333333 0.0
11.5 2.8 0.0
11.5 2.66666666666 0.0
11.5 2.53333333333 0.0
11.5 2.4 0.0
11.5 2.26666666666 0.0
11.5 2.13333333333 0.0
11.5 2.0 0.0
11.5 1.86666666666 0.0
11.5 1.73333333333 0.0
11.5 1.6 0.0
11.5 1.46666666666 0.0
11.5 1.33333333333 0.0
11.5 1.2 0.0
11.5 1.06666666666 0.0
11.5 0.933333333331 0.0
11.5 0.799999999998 0.0
11.5 0.666666666665 0.0
11.5 0.533333333332 0.0
11.5 0.399999999999 0.0
11.5 0.266666666666 0.0
11.5 0.133333333333 0.0
11.4 3.86666666667 0.0
11.4 3.73333333333 0.0
11.4 3.6 0.0
11.4 3.46666666667 0.0
11.4 3.33333333333 0.0
11.4 3.2 0.0
11.4 3.06666666666 0.0
11.4 2.93333333333 0.0
11.4 2.8 0.0
11.4 2.66666666666 0.0
11.4 2.53333333333 0.0
11.4 2.4 0.0
11.4 2.26666666666 0.0
11.4 2.13333333333 0.0
11.4 2.0 0.0
11.4 1.86666666666 0.0
11.4 1.73333333333 0.0
11.4 1.6 0.0
11.4 1.46666666666 0.0
11.4 1.33333333333 0.0
11.4 1.2 0.0
11.4 1.06666666666 0.0
11.4 0.933333333331 0.0
11.4 0.799999999998 0.0
11.4 0.666666666665 0.0
11.4 0.533333333333 0.0
11.4 0.399999999999 0.0
11.4 0.266666666666 0.0
11.4 0.133333333333 0.0
11.3 3.86666666667 0.0
11.3 3.73333333333 0.0
11.3 3.6 0.0
11.3 3.46666666667 0.0
11.3 3.33333333333 0.0
11.3 3.2 0.0
11.3 3.06666666666 0.0
11.3 2.93333333333 0.0
11.3 2.8 0.0
[...]
POINT_DATA 3751
VECTORS Displacement float
0.0 0.0 0
0.0 0.0 0
0.00107096668767 -7.47484183556e-05 0
-0.0867441706149 -0.355560474296 0
0.0 0.0 0
0.0 0.0 0
0.0 0.0 0
0.0 0.0 0
0.0 0.0 0
0.0 0.0 0
0.0 0.0 0
0.0 0.0 0
0.0 0.0 0
0.0 0.0 0
0.0 0.0 0
0.0 0.0 0
0.0 0.0 0
0.0 0.0 0
0.0 0.0 0
0.0 0.0 0
0.0 0.0 0
0.0 0.0 0
0.0 0.0 0
0.0 0.0 0
0.0 0.0 0
0.0 0.0 0
0.0 0.0 0
0.0 0.0 0
0.0 0.0 0
0.0 0.0 0
0.0 0.0 0
0.0 0.0 0
0.0 0.0 0
0.0 0.0 0
0.0 0.0 0
0.0 0.0 0
0.0 0.0 0
0.0 0.0 0
0.0 0.0 0
0.0 0.0 0
0.0 0.0 0
0.0 0.0 0
0.0 0.0 0
0.0 0.0 0
0.0 0.0 0
0.0 0.0 0
0.0 0.0 0
0.0 0.0 0
0.0 0.0 0
0.0 0.0 0
0.0 0.0 0
0.0 0.0 0
0.0 0.0 0
0.0 0.0 0
0.0 0.0 0
0.0 0.0 0
0.0 0.0 0
0.0 0.0 0
0.0 0.0 0
0.0 0.0 0
0.0 0.0 0
0.0 0.0 0
0.0 0.0 0
0.0 0.0 0
0.0 0.0 0
0.0 0.0 0
0.0 0.0 0
0.0 0.0 0
0.0 0.0 0
0.0 0.0 0
0.0 0.0 0
0.0 0.0 0
0.0 0.0 0
0.0 0.0 0
0.0 0.0 0
0.0 0.0 0
0.0 0.0 0
0.0 0.0 0
0.0 0.0 0
0.0 0.0 0
0.0 0.0 0
0.0 0.0 0
0.0 0.0 0
0.0 0.0 0
0.0 0.0 0
0.0 0.0 0
0.0 0.0 0
0.0 0.0 0
0.0 0.0 0
0.0 0.0 0
0.0 0.0 0
0.0 0.0 0
0.0 0.0 0
0.0 0.0 0
0.0 0.0 0
0.0 0.0 0
0.0 0.0 0
0.0 0.0 0
0.0 0.0 0
0.0 0.0 0
0.0 0.0 0
0.0 0.0 0
0.0 0.0 0
0.0 0.0 0
0.0 0.0 0
0.0 0.0 0
0.0 0.0 0
0.0 0.0 0
0.0 0.0 0
0.0 0.0 0
0.0 0.0 0
0.0 0.0 0
0.0 0.0 0
0.0 0.0 0
0.0 0.0 0
0.0 0.0 0
0.0 0.0 0
0.0 0.0 0
0.0 0.0 0
0.0 0.0 0
0.0 0.0 0
0.0 0.0 0
0.0 0.0 0
-2.26240180788e-05 1.56844003222e-05 0
-3.71801181852e-05 2.17688817942e-05 0
-4.65895503267e-05 2.32913453789e-05 0
-5.03809928797e-05 2.25023075548e-05 0
-4.89259456337e-05 2.03443348613e-05 0
-4.25058274488e-05 1.74045522637e-05 0
-3.14410821337e-05 1.40332151368e-05 0
-1.6040602827e-05 1.04384227044e-05 0
3.4064859938e-06 6.72889743815e-06 0
2.66411731158e-05 2.94461554679e-06 0
5.34396936016e-05 -9.21012432001e-07 0
8.36157884344e-05 -4.90329249245e-06 0
0.000117020180157 -9.05137028352e-06 0
0.000153537647305 -1.34155765038e-05 0
0.000193081940469 -1.80366944911e-05 0
0.000235588780227 -2.29370593007e-05 0
0.000281007174429 -2.81135250401e-05 0
0.000329289308597 -3.35324155103e-05 0
0.000380379291171 -3.91266297917e-05 0
0.000434201077973 -4.47951241888e-05 0
0.000490645963784 -5.04050475017e-05 0
0.000549560127251 -5.57968815009e-05 0
0.000610732877162 -6.07930519492e-05 0
0.000673886532429 -6.52106580953e-05 0
0.000738669413116 -6.88792768381e-05 0
0.000804654530138 -7.16653161802e-05 0
0.000871349226063 -7.35053139511e-05 0
0.000938227596044 -7.44515254506e-05 0
0.00100482071567 -7.47307517562e-05 0
0.00107096403421 -2.52207683614e-05 0
0.00107104852573 2.4067245288e-05 0
0.00107141582583 7.30965052947e-05 0
0.00107221849818 0.000122014867149 0
0.00107355023906 0.000171037351214 0
0.00107545438929 0.000220405120905 0
0.00107793402817 0.000270367373835 0
0.0010809598562 0.000321172914226 0
0.00108447568547 0.000373066225114 0
0.00108840208256 0.000426285665352 0
0.00109263868093 0.000481062674573 0
0.00109706554662 0.000537621431166 0
0.0011015438636 0.000596178678319 0
0.00110591612012 0.000656943567426 0
0.00111000591996 0.000720117437305 0
0.00111361750401 0.000785893483916 0
0.0011165350411 0.000854456294518 0
0.00111852172983 0.00092598123017 0
0.00111931874073 0.00100063364555 0
0.00111864401999 0.00107856793734 0
0.00111619097029 0.00115992641312 0
0.00111162702028 0.00124483797275 0
0.00110459209167 0.00133341659361 0
0.00109469697093 0.00142575961026 0
0.00108152159166 0.00152194577843 0
0.00106461323282 0.00162203311213 0
0.00104348463759 0.00172605648197 0
0.00101761205782 0.00183402496156 0
0.000986433228759 0.0019459189085 0
0.000949345279401 0.00206168676509 0
0.000905702583914 0.00218124156335 0
0.000854814560433 0.00230445711816 0
0.000795943423985 0.00243116389129 0
0.000728301901201 0.00256114450865 0
0.000651050915333 0.00269412891203 0
0.000563297251056 0.00282978912612 0
0.000464091209649 0.00296773362074 0
0.000352424266298 0.00310750124753 0
0.000227226742557 0.00324855472976 0
8.73655083221e-05 0.00339027368317 0
-6.83582708237e-05 0.00353194714509 0
-0.000241211323547 0.00367276558855 0
-0.000432530380969 0.00381181239726 0
-0.000643724182434 0.0039480547769 0
-0.000876275356323 0.00408033407715 0
-0.00113174215152 0.00420735549872 0
-0.00141175999318 0.00432767715808 0
-0.00171804283434 0.00443969848255 0
-0.00205238427291 0.0045416479068 0
-0.00241665840132 0.00463156984097 0
-0.00281282035375 0.00470731087936 0
-0.00324290651364 0.00476650521683 0
-0.00370903434181 0.00480655923825 0
-0.00421340178268 0.00482463524412 0
-0.00475828620404 0.00481763427247 0
-0.00534604282259 0.00478217797385 0
-0.00597910256494 0.00471458949175 0
-0.00665996931093 0.00461087329582 0
-0.00739121646269 0.00446669390886 0
-0.00817548277987 0.0042773534603 0
-0.00901546741767 0.00403776799019 0
-0.00991392410043 0.00374244241503 0
-0.0108736543592 0.00338544405349 0
-0.0118974997566 0.00296037459212 0
-0.012988333017 0.00246034035041 0
-0.014149047972 0.00187792067886 0
-0.0153825482263 0.0012051342926 0
-0.016691734435 0.000433403305311 0
-0.0180794900765 -0.00044648531786 0
-0.0195486655878 -0.00144442122573 0
-0.0211020607131 -0.00257101547039 0
-0.0227424048932 -0.00383764910941 0
-0.0244723354986 -0.0052565262121 0
-0.0262943736721 -0.00684073198622 0
-0.0282108975037 -0.00860429689597 0
-0.030224112207 -0.0105622678334 0
-0.0323360168937 -0.0127307876418 0
-0.0345483674518 -0.0151271845872 0
-0.0368626349193 -0.0177700737444 0
-0.0392799585878 -0.0206794727355 0
-0.0418010928793 -0.0238769348558 0
-0.044426346773 -0.0273857033889 0
-0.0471555142193 -0.031230891904 0
-0.0499877935169 -0.0354396966214 0
-0.0529216930115 -0.0400416486332 0
-0.0559549196319 -0.0450689160386 0
-0.0590842456222 -0.0505566691029 0
-0.0623053472112 -0.056543525727 0
-0.0656126066733 -0.0630721002799 0
-0.0689988659465 -0.0701896869676 0
-0.0724551151486 -0.0779491205084 0
-0.0759700921259 -0.0864098737919 0
-0.079529758115 -0.0956394773529 0
-0.0831165972027 -0.105715383817 0
-0.0867086589691 -0.116727460465 0
-0.0902782158603 -0.12878138983 0
-0.0937898221207 -0.142003419974 0
-0.0971974019815 -0.156547186569 0
-0.100439676243 -0.172603841382 0
-0.103432533423 -0.190417675587 0
-0.106055339644 -0.210311474629 0
-0.108123606742 -0.232729166582 0
-0.109330309342 -0.25831714026 0
-0.109089085476 -0.288050824477 0
-0.106189363686 -0.323717786916 0
-0.0971120216805 -0.367271698977 0
-0.0756970532801 -0.437473724271 0
-0.0648734208923 -0.48698395141 0
-0.0620181264749 -0.526024733383 0
-0.0638476253219 -0.552146427058 0
-0.0647713939098 -0.572747331998 0
-0.07167625088 -0.571275758671 0
-0.0793718044663 -0.556352589011 0
-0.0843631147343 -0.527007582026 0
-0.084248063418 -0.483879918426 0
-0.0789608665665 -0.426627461954 0
-0.081685177655 -0.403713187631 0
-0.0847584053217 -0.385113598492 0
-0.0863959708787 -0.370141489703 0
-0.10683811298 -0.356396112728 0
-0.124464938401 -0.358862695861 0
-0.136101092567 -0.361444289129 0
-0.141337508215 -0.361989391499 0
-0.141504014187 -0.359418447882 0
-0.138219265469 -0.353622648804 0
-0.132821956203 -0.344987825347 0
-0.12627884574 -0.334046690114 0
-0.119249846567 -0.321326668542 0
-0.11216682164 -0.307290545941 0
-0.10530083622 -0.292321439011 0
-0.0988122553117 -0.276726137741 0
-0.092786345641 -0.26074527162 0
-0.0872577918695 -0.244564974007 0
-0.0822271957956 -0.228327808773 0
-0.0776718898448 -0.21214214638 0
-0.0735527339138 -0.196089829441 0
-0.0698180298831 -0.180232234592 0
-0.0664052775209 -0.16461491587 0
-0.0632411702091 -0.149270997619 0
-0.0602399492866 -0.134223406373 0
-0.0572999121842 -0.119485906282 0
-0.0542975509699 -0.105062614514 0
-0.0510775926288 -0.0909454416496 0
-0.0474380822416 -0.0771066874072 0
-0.0430941411284 -0.0634867898255 0
-0.0376542244567 -0.0499406412955 0
-0.0302882400318 -0.0362014107871 0
-0.0203548774071 -0.0209659041674 0
0.00100481809931 -2.51572264527e-05 0
0.000938048467887 -2.47982545502e-05 0
0.000870910512635 -2.39316577947e-05 0
0.000803927426766 -2.24554359146e-05 0
0.000737663239957 -2.03491423271e-05 0
0.000672636397641 -1.7662599812e-05 0
0.000609289243143 -1.44955093545e-05 0
0.000547980619625 -1.09770229882e-05 0
0.000488989052329 -7.24829999219e-06 0
0.000432521349184 -3.44860845844e-06 0
0.000378724070916 2.95172025998e-07 0
0.000327696453073 3.87594502683e-06 0
0.000279503888004 7.21099278424e-06 0
0.00023419134771 1.02440454576e-05 0
0.00019179628153 1.29450629263e-05 0
0.000152360615945 1.53079373946e-05 0
0.000115941545217 1.73462968414e-05 0
8.26208449102e-05 1.90875595259e-05 0
5.25124726363e-05 2.056535232e-05 0
2.57682441282e-05 2.18103514479e-05 0
2.5813930642e-06 2.28395190186e-05 0
-1.68121773486e-05 2.36435642578e-05 0
-3.2135079899e-05 2.41722137493e-05 0
-4.30724627412e-05 2.43164019212e-05 0
-4.92778824663e-05 2.38856962485e-05 0
-5.03865070253e-05 2.25776569762e-05 0
-4.6007350077e-05 1.99322973757e-05 0
-3.58399839756e-05 1.52899932713e-05 0
-1.92350964652e-05 7.76974915125e-06 0
0.00100494521725 2.40000461712e-05 0
0.000937972120311 2.41933118952e-05 0
0.000870592536194 2.48153967359e-05 0
0.000803374319494 2.58874850801e-05 0
0.00073690238735 2.73778803987e-05 0
0.000671708699397 2.92183755624e-05 0
0.000608243799273 3.13131949105e-05 0
0.000546869857073 3.35495532048e-05 0
0.00048786452768 3.58084160269e-05 0
0.000431430356272 3.79740869618e-05 0
0.000377707098348 3.99419735093e-05 0
0.000326785475999 4.16243072775e-05 0
0.000278721453107 4.2953798573e-05 0
0.000233550399498 4.38852996134e-05 0
0.000191300674325 4.43955927873e-05 0
0.000152006255476 4.44814382327e-05 0
0.000115718104922 4.41560208573e-05 0
8.25140044552e-05 4.34439360963e-05 0
5.25066291731e-05 4.23748484917e-05 0
2.58496512798e-05 4.09759493249e-05 0
2.74167931782e-06 3.92633331387e-05 0
-1.65721475405e-05 3.7232421228e-05 0
-3.18011866138e-05 3.48476295103e-05 0
-4.26130404363e-05 3.20317199919e-05 0
-4.86419515307e-05 2.86563862628e-05 0
-4.94987614896e-05 2.45379609831e-05 0
-4.48179244526e-05 1.94633522802e-05 0
-3.42732939233e-05 1.32802990994e-05 0
-1.84478338219e-05 6.65996750181e-06 0
0.00100530355041 7.28091882922e-05 0
0.000938084033699 7.27693107941e-05 0
0.000870431159996 7.30925581115e-05 0
0.000802978989272 7.37563711798e-05 0
0.000736329023674 7.46850446763e-05 0
0.000671017837083 7.57815128519e-05 0
0.000607496265123 7.69374496419e-05 0
0.000546123999935 7.80397917513e-05 0
0.000487173833495 7.89770969086e-05 0
0.000430841419337 7.96456102753e-05 0
0.000377258045506 7.9954483238e-05 0
0.000326504918473 7.9829758386e-05 0
0.000278627997998 7.92169251092e-05 0
0.000233652721004 7.80819829177e-05 0
0.000191598122746 7.64110331064e-05 0
0.000152489966626 7.42084721045e-05 0
0.000116372560252 7.14938955474e-05 0
8.33189795363e-05 6.82978506746e-05 0
5.34394514222e-05 6.46566048814e-05 0
2.68876578851e-05 6.06061420543e-05 0
3.86471472715e-06 5.61756771912e-05 0
-1.53794959393e-05 5.13811446437e-05 0
-3.05480888953e-05 4.62194649265e-05 0
-4.13032382489e-05 4.06653027334e-05 0
-4.7278110008e-05 3.46737871208e-05 0
-4.81056865619e-05 2.81999547422e-05 0
-4.34713030267e-05 2.1248785296e-05 0
-3.33369898622e-05 1.40495452441e-05 0
-1.83749127854e-05 6.97808227758e-06 0
0.00100594598055 0.000121457792272 0
0.000938403259762 0.000121172644617 0
0.000870424941208 0.000121203253461 0
0.000802714318479 0.000121486237275 0
0.000735892024015 0.000121909691183 0
0.000670494838195 0.000122346326621 0
0.00060696760083 0.000122667559424 0
0.000545661523228 0.000122749961162 0
0.000486839501303 0.000122479695908 0
0.00043068626676 0.000121756342346 0
0.000377321460178 0.00012049615619 0
0.000326814253316 0.000118634546051 0
0.000279198567762 0.000116127564894 0
0.000234488205278 0.000112952306635 0
0.000192691372498 0.000109106178981 0
0.000153824187818 0.000104605089104 0
0.000117922825302 9.94806325903e-05 0
8.50539917811e-05 9.37764268575e-05 0
5.53234522217e-05 8.75437889334e-05 0
2.88823105123e-05 8.08370409835e-05 0
5.93069509956e-06 7.3708865651e-05 0
-1.328164336e-05 6.62063806167e-05 0
-2.84587263219e-05 5.83690928818e-05 0
-3.92673616669e-05 5.02307502332e-05 0
-4.53563693929e-05 4.18292247259e-05 0
-4.63936018544e-05 3.32294982224e-05 0
-4.21524326135e-05 2.45732110772e-05 0
-3.26732476482e-05 1.60916025204e-05 0
-1.84128162079e-05 7.96817289491e-06 0
0.00100690231969 0.00017018702165 0
0.000938921610042 0.000169665680083 0
0.000870547913395 0.000169434228911 0
0.000802541226519 0.000169381673351 0
0.000735540099962 0.000169359862317 0
0.000670079010023 0.000169210896042 0
0.000606592042572 0.000168782266619 0
0.000545416434584 0.000167934311751 0
0.000486799852202 0.00016654427206 0
0.000430911299865 0.000164509005824 0
0.000377854569767 0.000161746977933 0
0.000327683156662 0.000158199586405 0
0.00028041577014 0.000153831741971 0
0.000236051770264 0.000148631620152 0
0.000194585994693 0.000142609554075 0
0.000156022542481 0.000135796093919 0
0.000120387142645 0.000128239316867 0
8.77377706468e-05 0.000120001532562 0
5.81731830595e-05 0.000111155602209 0
3.18390089317e-05 0.000101781189698 0
8.9309411086e-06 9.19614138469e-05 0
-1.03056591084e-05 8.17806133831e-05 0
-2.55808858318e-05 7.13242991808e-05 0
-3.65724045887e-05 6.0682954426e-05 0
-4.29485476903e-05 4.99614513318e-05 0
-4.44113520071e-05 3.92955872995e-05 0
-4.07688559533e-05 2.88616541677e-05 0
-3.20226249016e-05 1.88415165377e-05 0
-1.83779650365e-05 9.29500402703e-06 0
0.00100818063266 0.000219258705449 0
0.000939616209597 0.000218521496527 0
0.000870760540928 0.000218068072003 0
0.000802411522215 0.000217732409863 0
0.000735219545803 0.000217326230113 0
0.000669713291566 0.000216659004504 0
0.000606311842483 0.000215551766059 0
0.000545333366681 0.000213844964411 0
0.000487004936476 0.000211402672691 0
0.000431474609002 0.000208114898705 0
0.000378825457914 0.000203898858539 0
0.000329090848136 0.000198699513128 0
0.000282270235846 0.000192489428602 0
0.000238344868092 0.000185267951799 0
0.000197292855032 0.000177059699188 0
0.000159103165876 0.000167912394802 0
0.00012378815266 0.000157894142924 0
9.13942327352e-05 0.000147090280236 0
6.20103569555e-05 0.000135600023565 0
3.57738433715e-05 0.000123533220389 0
1.2873037171e-05 0.000111007629607 0
-6.45397957854e-06 9.81473070762e-05 0
-2.19258732592e-05 8.50828198522e-05 0
-3.32317240119e-05 7.19539136224e-05 0
-4.00551135561e-05 5.89145072161e-05 0
-4.2112009501e-05 4.61356256443e-05 0
-3.91997937109e-05 3.37935227812e-05 0
-3.12328310305e-05 2.20218454171e-05 0
-1.82034708474e-05 1.08237458808e-05 0
0.00100976703538 0.000268939366998 0
0.000940451940835 0.000268015443611 0
0.000871014224686 0.000267384551852 0
0.000802270487522 0.000266820225936 0
0.000734873811809 0.000266089238812 0
0.000669341837235 0.000264965265571 0
0.000606073956699 0.000263240326898 0
0.000545364177945 0.000260732291092 0
0.000487413548727 0.000257289162941 0
0.000432343687903 0.000252791287703 0
0.000380211620316 0.000247152261204 0
0.000331025539619 0.000240318955982 0
0.000284760953074 0.00023227083767 0
0.000241376658256 0.000223018640563 0
0.000200830048835 0.000212602444526 0
0.000163091298763 0.000201089209535 0
0.000128156013368 0.000188569859054 0
9.60559539735e-05 0.000175156050323 0
6.68674322917e-05 0.000160976825584 0
4.0716919936e-05 0.000146175401182 0
1.77833084237e-05 0.000130906412064 0
-1.70394410305e-06 0.000115333957534 0
-1.74718399444e-05 9.9630683745e-05 0
-2.92174654474e-05 8.39776689193e-05 0
-3.66295758964e-05 6.85633583806e-05 0
-3.941753995e-05 5.35767172702e-05 0
-3.73401490542e-05 3.91858881406e-05 0
-3.02132400753e-05 2.54950519497e-05 0
-1.78622189747e-05 1.24881845007e-05 0
0.00101162626177 0.000319492868094 0
0.000941381096903 0.000318419849524 0
0.000871252209308 0.000317659420553 0
0.000802057835609 0.000316921239563 0
0.000734443361945 0.000315922744429 0
0.000668908672902 0.000314398284251 0
0.00060582796623 0.000312108162787 0
0.00054546564761 0.000308845338873 0
0.000487991096088 0.000304439576735 0
0.000433493740241 0.000298759587286 0
0.000381998864995 0.000291713742847 0
0.00033348400267 0.000283249768466 0
0.00028789551588 0.000273353641787 0
0.000245164905917 0.000262047829492 0
0.000205224381383 0.000249388944144 0
0.00016802124691 0.000235464900166 0
0.000133530696132 0.000220391665059 0
0.000101766604127 0.000204309731004 0
7.27899036781e-05 0.000187380464634 0
4.67140891603e-05 0.000169782518575 0
2.37073141955e-05 0.00015170848616 0
3.99043920108e-06 0.00013336190061 0
-1.21697159984e-05 0.00011495442175 0
-2.44725672371e-05 9.6702406962e-05 0
-3.26012738502e-05 7.88208181163e-05 0
-3.62429413523e-05 6.15107121946e-05 0
-3.510374215e-05 4.49359524559e-05 0
-2.89043633533e-05 2.9188600382e-05 0
-1.73393414997e-05 1.42538812627e-05 0
0.00101370267626 0.000371177163307 0
0.000942342588947 0.000370001285202 0
0.000871409022978 0.00036916313454 0
0.000801707497389 0.000368306397531 0
0.000733865244122 0.000367095583997 0
0.000668356748931 0.000365222340853 0
0.000605524688993 0.000362412545827 0
0.00054559789847 0.00035843208967 0
0.000488708092681 0.000353090715916 0
0.000434906452026 0.000346244045716 0
0.00038418049978 0.000337794144658 0
0.000336471245328 0.000327688964297 0
0.00029169031192 0.000315920898399 0
0.000249736658338 0.000302524614213 0
0.000210512471967 0.000287574272701 0
0.000173937813129 0.000271180234247 0
0.000139963602066 0.000253485347839 0
0.000108582546725 0.000234660931699 0
7.98376040909e-05 0.000214902561252 0
5.38275472627e-05 0.000194425771118 0
3.07091803937e-05 0.000173461725662 0
1.06957302423e-05 0.000152252771539 0
-5.94897363361e-06 0.000131047478941 0
-1.89205460488e-05 0.00011009422422 0
-2.78873123071e-05 8.96315898803e-05 0
-3.2503671738e-05 6.98732937229e-05 0
-3.24172498455e-05 5.09861436254e-05 0
-2.7260884447e-05 3.30632616698e-05 0
-1.66226960699e-05 1.61017740479e-05 0
0.00101592130433 0.00042424300993 0
0.000943261289211 0.000423019360194 0
0.000871409498836 0.000422160053322 0
0.000801146828133 0.00042124140465 0
0.000733072368505 0.000419872121893 0
0.000667627087932 0.000417698134474 0
0.000605115146495 0.000414408327477 0
0.000545723271097 0.000409739504293 0
0.000489539085856 0.000403479843885 0
0.000436569108187 0.000395470744466 0
0.000386756743387 0.000385607230183 0
0.000340000279417 0.00037383716526 0
0.000296170666049 0.000360159492924 0
0.000255128746124 0.000344621667987 0
0.000216741557357 0.000327316412954 0
0.000180897310193 0.000308377904656 0
0.000147518649894 0.000287977487697 0
0.000116573816924 0.000266319004422 0
8.80853236173e-05 0.000243633817953 0
6.2135769025e-05 0.000220175569696 0
3.88704316134e-05 0.000196214633 0
1.84963486135e-05 0.000172032067671 0
1.27779218138e-06 0.000147912612529 0
-1.24714682137e-05 0.000124135878236 0
-2.23977809783e-05 0.000100964556337 0
-2.81162675278e-05 7.86285394845e-05 0
-2.9214006805e-05 5.73050348429e-05 0
-2.52427525167e-05 3.70976036971e-05 0
-1.56992866813e-05 1.80209328894e-05 0
0.00101818865986 0.000478933571107 0
0.000944047555255 0.000477726329319 0
0.000871167790346 0.000476908066429 0
0.000800295622868 0.000475986560553 0
0.000731992629679 0.000474512346248 0
0.000666657945262 0.000472082998393 0
0.000604549707882 0.000468348058839 0
0.000545805467722 0.000463013377717 0
0.000490461866899 0.000455844199386 0
0.000438473951334 0.000446666783731 0
0.000389734301366 0.000435368620693 0
0.000344091957473 0.000421897403879 0
0.000301370951607 0.000406258945618 0
0.000261388150698 0.000388514195158 0
0.000223970065539 0.00036877549382 0
0.000188968258165 0.000347202177561 0
0.000156272979211 0.000323995618908 0
0.000125824674628 0.000299393781656 0
9.76230159829e-05 0.000273665333948 0
7.17331355835e-05 0.000247103316182 0
4.8288804236e-05 0.000220018273756 0
2.74924120649e-05 0.000192730625887 0
9.61186452449e-06 0.00016556184979 0
-5.02502831725e-06 0.000138823861489 0
-1.60373483326e-05 0.000112805917078 0
-2.29967927878e-05 8.77587217434e-05 0
-2.54293598778e-05 6.38765508817e-05 0
-2.28104864085e-05 4.12801202616e-05 0
-1.45539192122e-05 2.00049318029e-05 0
0.0010203932926 0.000535484386112 0
0.000944596858298 0.000534367070698 0
0.000870586498645 0.000533658482051 0