# vtk DataFile Version 2.0
Generated with Solid Solver
ASCII
DATASET UNSTRUCTURED_GRID
POINTS 3751 float 
0.0 0.0 0.0
12.0 0.0 0.0
12.0 4.0 0.0
0.0 4.0 0.0
0.0999999999996 0.0 0.0
0.199999999999 0.0 0.0
0.299999999999 0.0 0.0
0.399999999998 0.0 0.0
0.499999999998 0.0 0.0
0.599999999997 0.0 0.0
0.699999999997 0.0 0.0
0.799999999996 0.0 0.0
0.899999999996 0.0 0.0
0.999999999996 0.0 0.0
1.1 0.0 0.0
1.2 0.0 0.0
1.29999999999 0.0 0.0
1.39999999999 0.0 0.0
1.49999999999 0.0 0.0
1.59999999999 0.0 0.0
1.69999999999 0.0 0.0
1.79999999999 0.0 0.0
1.89999999999 0.0 0.0
1.99999999999 0.0 0.0
2.09999999999 0.0 0.0
2.19999999999 0.0 0.0
2.29999999999 0.0 0.0
2.39999999999 0.0 0.0
2.49999999999 0.0 0.0
2.59999999999 0.0 0.0
2.69999999999 0.0 0.0
2.79999999999 0.0 0.0
2.89999999999 0.0 0.0
2.99999999999 0.0 0.0
3.09999999999 0.0 0.0
3.19999999999 0.0 0.0
3.29999999999 0.0 0.0
3.39999999999 0.0 0.0
3.49999999999 0.0 0.0
3.59999999999 0.0 0.0
3.69999999999 0.0 0.0
3.79999999998 0.0 0.0
3.89999999998 0.0 0.0
3.99999999998 0.0 0.0
4.09999999998 0.0 0.0
4.19999999998 0.0 0.0
4.29999999998 0.0 0.0
4.39999999998 0.0 0.0
4.49999999998 0.0 0.0
4.59999999998 0.0 0.0
4.69999999998 0.0 0.0
4.79999999998 0.0 0.0
4.89999999998 0.0 0.0
4.99999999998 0.0 0.0
5.09999999998 0.0 0.0
5.19999999998 0.0 0.0
5.29999999998 0.0 0.0
5.39999999998 0.0 0.0
5.49999999998 0.0 0.0
5.59999999998 0.0 0.0
5.69999999998 0.0 0.0
5.79999999998 0.0 0.0
5.89999999998 0.0 0.0
5.99999999998 0.0 0.0
6.09999999998 0.0 0.0
6.19999999998 0.0 0.0
6.29999999998 0.0 0.0
6.39999999998 0.0 0.0
6.49999999998 0.0 0.0
6.59999999998 0.0 0.0
6.69999999998 0.0 0.0
6.79999999998 0.0 0.0
6.89999999998 0.0 0.0
6.99999999998 0.0 0.0
7.09999999998 0.0 0.0
7.19999999998 0.0 0.0
7.29999999998 0.0 0.0
7.39999999998 0.0 0.0
7.49999999998 0.0 0.0
7.59999999998 0.0 0.0
7.69999999998 0.0 0.0
7.79999999998 0.0 0.0
7.89999999998 0.0 0.0
7.99999999998 0.0 0.0
8.09999999999 0.0 0.0
8.19999999999 0.0 0.0
8.29999999999 0.0 0.0
8.39999999999 0.0 0.0
8.49999999999 0.0 0.0
8.59999999999 0.0 0.0
8.69999999999 0.0 0.0
8.79999999999 0.0 0.0
8.89999999999 0.0 0.0
8.99999999999 0.0 0.0
9.09999999999 0.0 0.0
9.19999999999 0.0 0.0
9.29999999999 0.0 0.0
9.39999999999 0.0 0.0
9.49999999999 0.0 0.0
9.59999999999 0.0 0.0
9.69999999999 0.0 0.0
9.79999999999 0.0 0.0
9.89999999999 0.0 0.0
9.99999999999 0.0 0.0
10.1 0.0 0.0
10.2 0.0 0.0
10.3 0.0 0.0
10.4 0.0 0.0
10.5 0.0 0.0
10.6 0.0 0.0
10.7 0.0 0.0
10.8 0.0 0.0
10.9 0.0 0.0
11.0 0.0 0.0
11.1 0.0 0.0
11.2 0.0 0.0
11.3 0.0 0.0
11.4 0.0 0.0
11.5 0.0 0.0
11.6 0.0 0.0
11.7 0.0 0.0
11.8 0.0 0.0
11.9 0.0 0.0
12.0 0.133333333333 0.0
12.0 0.266666666666 0.0
12.0 0.399999999999 0.0
12.0 0.533333333332 0.0
12.0 0.666666666665 0.0
12.0 0.799999999998 0.0
12.0 0.933333333331 0.0
12.0 1.06666666666 0.0
12.0 1.2 0.0
12.0 1.33333333333 0.0
12.0 1.46666666666 0.0
12.0 1.6 0.0
12.0 1.73333333333 0.0
12.0 1.86666666666 0.0
12.0 1.99999999999 0.0
12.0 2.13333333333 0.0
12.0 2.26666666666 0.0
12.0 2.4 0.0
12.0 2.53333333333 0.0
12.0 2.66666666666 0.0
12.0 2.8 0.0
12.0 2.93333333333 0.0
12.0 3.06666666666 0.0
12.0 3.2 0.0
12.0 3.33333333333 0.0
12.0 3.46666666667 0.0
12.0 3.6 0.0
12.0 3.73333333333 0.0
12.0 3.86666666667 0.0
11.9 4.0 0.0
11.8 4.0 0.0
11.7 4.0 0.0
11.6 4.0 0.0
11.5 4.0 0.0
11.4 4.0 0.0
11.3 4.0 0.0
11.2 4.0 0.0
11.1 4.0 0.0
11.0 4.0 0.0
10.9 4.0 0.0
10.8 4.0 0.0
10.7 4.0 0.0
10.6 4.0 0.0
10.5 4.0 0.0
10.4 4.0 0.0
10.3 4.0 0.0
10.2 4.0 0.0
10.1 4.0 0.0
10.0 4.0 0.0
9.90000000001 4.0 0.0
9.80000000001 4.0 0.0
9.70000000001 4.0 0.0
9.60000000001 4.0 0.0
9.50000000001 4.0 0.0
9.40000000001 4.0 0.0
9.30000000001 4.0 0.0
9.20000000001 4.0 0.0
9.10000000001 4.0 0.0
9.00000000001 4.0 0.0
8.90000000001 4.0 0.0
8.80000000001 4.0 0.0
8.70000000001 4.0 0.0
8.60000000001 4.0 0.0
8.50000000001 4.0 0.0
8.40000000001 4.0 0.0
8.30000000001 4.0 0.0
8.20000000001 4.0 0.0
8.10000000001 4.0 0.0
8.00000000001 4.0 0.0
7.90000000001 4.0 0.0
7.80000000001 4.0 0.0
7.70000000001 4.0 0.0
7.60000000001 4.0 0.0
7.50000000001 4.0 0.0
7.40000000001 4.0 0.0
7.30000000001 4.0 0.0
7.20000000001 4.0 0.0
7.10000000001 4.0 0.0
7.00000000001 4.0 0.0
6.90000000001 4.0 0.0
6.80000000001 4.0 0.0
6.70000000001 4.0 0.0
6.60000000001 4.0 0.0
6.50000000001 4.0 0.0
6.40000000001 4.0 0.0
6.30000000002 4.0 0.0
6.20000000002 4.0 0.0
6.10000000002 4.0 0.0
6.00000000002 4.0 0.0
5.90000000002 4.0 0.0
5.80000000002 4.0 0.0
5.70000000002 4.0 0.0
5.60000000002 4.0 0.0
5.50000000002 4.0 0.0
5.40000000002 4.0 0.0
5.30000000001 4.0 0.0
5.20000000001 4.0 0.0
5.10000000001 4.0 0.0
5.00000000001 4.0 0.0
4.90000000001 4.0 0.0
4.80000000001 4.0 0.0
4.70000000001 4.0 0.0
4.60000000001 4.0 0.0
4.50000000001 4.0 0.0
4.40000000001 4.0 0.0
4.30000000001 4.0 0.0
4.20000000001 4.0 0.0
4.10000000001 4.0 0.0
4.00000000001 4.0 0.0
3.90000000001 4.0 0.0
3.80000000001 4.0 0.0
3.70000000001 4.0 0.0
3.60000000001 4.0 0.0
3.50000000001 4.0 0.0
3.40000000001 4.0 0.0
3.30000000001 4.0 0.0
3.20000000001 4.0 0.0
3.10000000001 4.0 0.0
3.00000000001 4.0 0.0
2.90000000001 4.0 0.0
2.80000000001 4.0 0.0
2.70000000001 4.0 0.0
2.60000000001 4.0 0.0
2.50000000001 4.0 0.0
2.40000000001 4.0 0.0
2.30000000001 4.0 0.0
2.20000000001 4.0 0.0
2.10000000001 4.0 0.0
2.00000000001 4.0 0.0
1.90000000001 4.0 0.0
1.80000000001 4.0 0.0
1.7 4.0 0.0
1.6 4.0 0.0
1.5 4.0 0.0
1.4 4.0 0.0
1.3 4.0 0.0
1.2 4.0 0.0
1.1 4.0 0.0
1.0 4.0 0.0
0.900000000003 4.0 0.0
0.800000000002 4.0 0.0
0.700000000002 4.0 0.0
0.600000000002 4.0 0.0
0.500000000001 4.0 0.0
0.400000000001 4.0 0.0
0.300000000001 4.0 0.0
0.200000000001 4.0 0.0
0.1 4.0 0.0
0.0 3.86666666667 0.0
0.0 3.73333333333 0.0
0.0 3.6 0.0
0.0 3.46666666666 0.0
0.0 3.33333333333 0.0
0.0 3.2 0.0
0.0 3.06666666667 0.0
0.0 2.93333333334 0.0
0.0 2.8 0.0
0.0 2.66666666667 0.0
0.0 2.53333333334 0.0
0.0 2.40000000001 0.0
0.0 2.26666666667 0.0
0.0 2.13333333334 0.0
0.0 2.00000000001 0.0
0.0 1.86666666667 0.0
0.0 1.73333333334 0.0
0.0 1.60000000001 0.0
0.0 1.46666666667 0.0
0.0 1.33333333334 0.0
0.0 1.2 0.0
0.0 1.06666666667 0.0
0.0 0.933333333337 0.0
0.0 0.800000000003 0.0
0.0 0.666666666669 0.0
0.0 0.533333333336 0.0
0.0 0.400000000002 0.0
0.0 0.266666666668 0.0
0.0 0.133333333334 0.0
11.9 3.86666666667 0.0
11.9 3.73333333333 0.0
11.9 3.6 0.0
11.9 3.46666666667 0.0
11.9 3.33333333333 0.0
11.9 3.2 0.0
11.9 3.06666666666 0.0
11.9 2.93333333333 0.0
11.9 2.8 0.0
11.9 2.66666666666 0.0
11.9 2.53333333333 0.0
11.9 2.4 0.0
11.9 2.26666666666 0.0
11.9 2.13333333333 0.0
11.9 1.99999999999 0.0
11.9 1.86666666666 0.0
11.9 1.73333333333 0.0
11.9 1.6 0.0
11.9 1.46666666666 0.0
11.9 1.33333333333 0.0
11.9 1.2 0.0
11.9 1.06666666666 0.0
11.9 0.933333333331 0.0
11.9 0.799999999998 0.0
11.9 0.666666666665 0.0
11.9 0.533333333332 0.0
11.9 0.399999999999 0.0
11.9 0.266666666666 0.0
11.9 0.133333333333 0.0
11.8 3.86666666667 0.0
11.8 3.73333333333 0.0
11.8 3.6 0.0
11.8 3.46666666667 0.0
11.8 3.33333333333 0.0
11.8 3.2 0.0
11.8 3.06666666666 0.0
11.8 2.93333333333 0.0
11.8 2.8 0.0
11.8 2.66666666666 0.0
11.8 2.53333333333 0.0
11.8 2.4 0.0
11.8 2.26666666666 0.0
11.8 2.13333333333 0.0
11.8 1.99999999999 0.0
11.8 1.86666666666 0.0
11.8 1.73333333333 0.0
11.8 1.6 0.0
11.8 1.46666666666 0.0
11.8 1.33333333333 0.0
11.8 1.2 0.0
11.8 1.06666666666 0.0
11.8 0.933333333331 0.0
11.8 0.799999999998 0.0
11.8 0.666666666665 0.0
11.8 0.533333333332 0.0
11.8 0.399999999999 0.0
11.8 0.266666666666 0.0
11.8 0.133333333333 0.0
11.7 3.86666666667 0.0
11.7 3.73333333333 0.0
11.7 3.6 0.0
11.7 3.46666666667 0.0
11.7 3.33333333333 0.0
11.7 3.2 0.0
11.7 3.06666666666 0.0
11.7 2.93333333333 0.0
11.7 2.8 0.0
11.7 2.66666666666 0.0
11.7 2.53333333333 0.0
11.7 2.4 0.0
11.7 2.26666666666 0.0
11.7 2.13333333333 0.0
11.7 2.0 0.0
11.7 1.86666666666 0.0
11.7 1.73333333333 0.0
11.7 1.6 0.0
11.7 1.46666666666 0.0
11.7 1.33333333333 0.0
11.7 1.2 0.0
11.7 1.06666666666 0.0
11.7 0.933333333331 0.0
11.7 0.799999999998 0.0
11.7 0.666666666665 0.0
11.7 0.533333333332 0.0
11.7 0.399999999999 0.0
11.7 0.266666666666 0.0
11.7 0.133333333333 0.0
11.6 3.86666666667 0.0
11.6 3.73333333333 0.0
11.6 3.6 0.0
11.6 3.46666666667 0.0
11.6 3.33333333333 0.0
11.6 3.2 0.0
11.6 3.06666666666 0.0
11.6 2.93333333333 0.0
11.6 2.8 0.0
11.6 2.66666666666 0.0
11.6 2.53333333333 0.0
11.6 2.4 0.0
11.6 2.26666666666 0.0
11.6 2.13333333333 0.0
11.6 2.0 0.0
11.6 1.86666666666 0.0
11.6 1.73333333333 0.0
11.6 1.6 0.0
11.6 1.46666666666 0.0
11.6 1.33333333333 0.0
11.6 1.2 0.0
11.6 1.06666666666 0.0
11.6 0.933333333331 0.0
11.6 0.799999999998 0.0
11.6 0.666666666665 0.0
11.6 0.533333333332 0.0
11.6 0.399999999999 0.0
11.6 0.266666666666 0.0
11.6 0.133333333333 0.0
11.5 3.86666666667 0.0
11.5 3.73333333333 0.0
11.5 3.6 0.0
11.5 3.46666666667 0.0
11.5 3.33333333333 0.0
11.5 3.2 0.0
11.5 3.06666666666 0.0
11.5 2.93333333333 0.0
11.5 2.8 0.0
11.5 2.66666666666 0.0
11.5 2.53333333333 0.0
11.5 2.4 0.0
11.5 2.26666666666 0.0
11.5 2.13333333333 0.0
11.5 2.0 0.0
11.5 1.86666666666 0.0
11.5 1.73333333333 0.0
11.5 1.6 0.0
11.5 1.46666666666 0.0
11.5 1.33333333333 0.0
11.5 1.2 0.0
11.5 1.06666666666 0.0
11.5 0.933333333331 0.0
11.5 0.799999999998 0.0
11.5 0.666666666665 0.0
11.5 0.533333333332 0.0
11.5 0.399999999999 0.0
11.5 0.266666666666 0.0
11.5 0.133333333333 0.0
11.4 3.86666666667 0.0
11.4 3.73333333333 0.0
11.4 3.6 0.0
11.4 3.46666666667 0.0
11.4 3.33333333333 0.0
11.4 3.2 0.0
11.4 3.06666666666 0.0
11.4 2.93333333333 0.0
11.4 2.8 0.0
11.4 2.66666666666 0.0
11.4 2.53333333333 0.0
11.4 2.4 0.0
11.4 2.26666666666 0.0
11.4 2.13333333333 0.0
11.4 2.0 0.0
11.4 1.86666666666 0.0
11.4 1.73333333333 0.0
11.4 1.6 0.0
11.4 1.46666666666 0.0
11.4 1.33333333333 0.0
11.4 1.2 0.0
11.4 1.06666666666 0.0
11.4 0.933333333331 0.0
11.4 0.799999999998 0.0
11.4 0.666666666665 0.0
11.4 0.533333333333 0.0
11.4 0.399999999999 0.0
11.4 0.266666666666 0.0
11.4 0.133333333333 0.0
11.3 3.86666666667 0.0
11.3 3.73333333333 0.0
11.3 3.6 0.0
11.3 3.46666666667 0.0
11.3 3.33333333333 0.0
11.3 3.2 0.0
11.3 3.06666666666 0.0
11.3 2.93333333333 0.0
11.3 2.8 0.0
[...]
POINT_DATA 3751
VECTORS Displacement float
0.0 0.0 0
0.0 0.0 0
-0.00241915037444 0.000760848813834 0
-0.024554978278 -0.0500161537995 0
0.0 0.0 0
0.0 0.0 0
0.0 0.0 0
0.0 0.0 0
0.0 0.0 0
0.0 0.0 0
0.0 0.0 0
0.0 0.0 0
0.0 0.0 0
0.0 0.0 0
0.0 0.0 0
0.0 0.0 0
0.0 0.0 0
0.0 0.0 0
0.0 0.0 0
0.0 0.0 0
0.0 0.0 0
0.0 0.0 0
0.0 0.0 0
0.0 0.0 0
0.0 0.0 0
0.0 0.0 0
0.0 0.0 0
0.0 0.0 0
0.0 0.0 0
0.0 0.0 0
0.0 0.0 0
0.0 0.0 0
0.0 0.0 0
0.0 0.0 0
0.0 0.0 0
0.0 0.0 0
0.0 0.0 0
0.0 0.0 0
0.0 0.0 0
0.0 0.0 0
0.0 0.0 0
0.0 0.0 0
0.0 0.0 0
0.0 0.0 0
0.0 0.0 0
0.0 0.0 0
0.0 0.0 0
0.0 0.0 0
0.0 0.0 0
0.0 0.0 0
0.0 0.0 0
0.0 0.0 0
0.0 0.0 0
0.0 0.0 0
0.0 0.0 0
0.0 0.0 0
0.0 0.0 0
0.0 0.0 0
0.0 0.0 0
0.0 0.0 0
0.0 0.0 0
0.0 0.0 0
0.0 0.0 0
0.0 0.0 0
0.0 0.0 0
0.0 0.0 0
0.0 0.0 0
0.0 0.0 0
0.0 0.0 0
0.0 0.0 0
0.0 0.0 0
0.0 0.0 0
0.0 0.0 0
0.0 0.0 0
0.0 0.0 0
0.0 0.0 0
0.0 0.0 0
0.0 0.0 0
0.0 0.0 0
0.0 0.0 0
0.0 0.0 0
0.0 0.0 0
0.0 0.0 0
0.0 0.0 0
0.0 0.0 0
0.0 0.0 0
0.0 0.0 0
0.0 0.0 0
0.0 0.0 0
0.0 0.0 0
0.0 0.0 0
0.0 0.0 0
0.0 0.0 0
0.0 0.0 0
0.0 0.0 0
0.0 0.0 0
0.0 0.0 0
0.0 0.0 0
0.0 0.0 0
0.0 0.0 0
0.0 0.0 0
0.0 0.0 0
0.0 0.0 0
0.0 0.0 0
0.0 0.0 0
0.0 0.0 0
0.0 0.0 0
0.0 0.0 0
0.0 0.0 0
0.0 0.0 0
0.0 0.0 0
0.0 0.0 0
0.0 0.0 0
0.0 0.0 0
0.0 0.0 0
0.0 0.0 0
0.0 0.0 0
0.0 0.0 0
0.0 0.0 0
0.0 0.0 0
0.0 0.0 0
0.0 0.0 0
0.0 0.0 0
-0.000172689983563 0.000162055538373 0
-0.000291242353229 0.000270056372167 0
-0.000405411637136 0.000354088184305 0
-0.000514040440792 0.000424795181455 0
-0.000619717805123 0.00048512474126 0
-0.000722801549999 0.000537046564625 0
-0.000823506514273 0.000581789525373 0
-0.000921842789456 0.000620265501742 0
-0.0010177565673 0.000653182129314 0
-0.00111115997918 0.000681120425246 0
-0.00120195380452 0.000704576008462 0
-0.00129003844721 0.00072398582002 0
-0.0013753209851 0.00073974566111 0
-0.00145771990972 0.000752222388717 0
-0.00153716884027 0.00076176262957 0
-0.0016136198101 0.000768699132523 0
-0.00168704649149 0.000773355407195 0
-0.00175744758024 0.000776049030753 0
-0.00182485048984 0.000777093829624 0
-0.00188931546669 0.00077680101536 0
-0.00195094021626 0.00077547924133 0
-0.00200986511204 0.000773433423659 0
-0.00206627902623 0.000770962004741 0
-0.00212042574019 0.000768352083162 0
-0.0021726106772 0.000765871398329 0
-0.00222320714447 0.000763755365603 0
-0.00227265963636 0.000762185758611 0
-0.00232147693526 0.000761254565887 0
-0.00237018843514 0.000760901212083 0
-0.00241913724345 0.000724039356085 0
-0.00241900023974 0.000687054439256 0
-0.0024185904723 0.000649991458285 0
-0.00241783310117 0.000613056898615 0
-0.00241671745256 0.000576476289212 0
-0.00241527828677 0.000540464588368 0
-0.00241358103538 0.000505215736726 0
-0.002411711377 0.000470899554147 0
-0.00240976801421 0.000437661722469 0
-0.00240785762589 0.000405625077129 0
-0.00240609129907 0.000374891434361 0
-0.00240458198971 0.000345543596272 0
-0.00240344271941 0.000317647362762 0
-0.00240278531375 0.000291253466853 0
-0.00240271954916 0.000266399392852 0
-0.00240335261462 0.00024311105852 0
-0.00240478882022 0.000221404353651 0
-0.00240712950138 0.000201286533465 0
-0.00241047308008 0.00018275746842 0
-0.00241491525207 0.000165810753841 0
-0.00242054927565 0.000150434683737 0
-0.00242746634214 0.000136613093756 0
-0.00243575601133 0.000124326078509 0
-0.00244550669866 0.000113550588634 0
-0.00245680620248 0.000104260912985 0
-0.00246974226223 9.64290512522e-05 0
-0.0024844031396 9.00249821264e-05 0
-0.00250087821633 8.50168319294e-05 0
-0.00251925860328 8.13709482767e-05 0
-0.00253963775664 7.90518830181e-05 0
-0.0025621120977 7.80222882795e-05 0
-0.00258678163357 7.82427289941e-05 0
-0.00261375057675 7.96714148464e-05 0
-0.00264312796173 8.22638540625e-05 0
-0.00267502825759 8.59724309948e-05 0
-0.00270957197545 9.07459089476e-05 0
-0.00274688627001 9.6528859207e-05 0
-0.00278710553464 0.000103261016754 0
-0.00283037198943 0.000110876562683 0
-0.00287683626148 0.000119303332893 0
-0.00292665795716 0.000128461952203 0
-0.00298000622528 0.000138264892636 0
-0.00303706031077 0.000148615454221 0
-0.00309801009755 0.000159406666338 0
-0.0031630566397 0.000170520107245 0
-0.0032324126795 0.00018182463915 0
-0.00330630315072 0.000193175055863 0
-0.00338496566541 0.00020441063979 0
-0.00346865098195 0.000215353624743 0
-0.00355762345223 0.000225807560801 0
-0.00365216144501 0.000235555577148 0
-0.00375255774274 0.0002443585386 0
-0.00385911990849 0.000251953091215 0
-0.00397217061948 0.000258049592108 0
-0.00409204796338 0.00026232991828 0
-0.00421910569327 0.000264445148904 0
-0.00435371343683 0.000264013115109 0
-0.00449625685521 0.000260615810839 0
-0.00464713774647 0.000253796657812 0
-0.00480677408868 0.000243057616943 0
-0.0049756000171 0.000227856137797 0
-0.00515406573004 0.000207601936702 0
-0.00534263731759 0.000181653592981 0
-0.00554179650746 0.000149314951359 0
-0.00575204032188 0.000109831316907 0
-0.00597388063962 6.2385426782e-05 0
-0.0062078436572 6.09318052055e-06 0
-0.00645446924301 -6.00008924554e-05 0
-0.00671431017879 -0.000136928453201 0
-0.00698793128227 -0.000225802491127 0
-0.00727590840559 -0.000327822814613 0
-0.00757882730378 -0.000444281936331 0
-0.0078972823683 -0.000576571403574 0
-0.00823187522037 -0.000726188633958 0
-0.00858321315964 -0.00089474432928 0
-0.00895190746367 -0.00108397055551 0
-0.0093385715342 -0.00129572959559 0
-0.00974381888636 -0.00153202370481 0
-0.0101682609775 -0.00179500592714 0
-0.0106125048723 -0.00208699216638 0
-0.0110771507409 -0.00241047475065 0
-0.0115627891886 -0.0027681377844 0
-0.0120699984121 -0.00316287465278 0
-0.0125993411833 -0.0035978081331 0
-0.0131513616568 -0.00407631368304 0
-0.0137265820026 -0.00460204662365 0
-0.0143254988651 -0.00517897412852 0
-0.0149485796583 -0.00581141318425 0
-0.0155962587109 -0.00650407602356 0
-0.0162689332977 -0.00726212498333 0
-0.0169669596173 -0.00809123935067 0
-0.0176906488325 -0.00899769759688 0
-0.0184402633794 -0.0099884795616 0
-0.019216013916 -0.0110713947832 0
-0.0200180575714 -0.0122552455008 0
-0.0208464986958 -0.0135500362171 0
-0.0217013943069 -0.0149672466374 0
-0.022582768374 -0.0165201920915 0
-0.0234906430009 -0.0182245064081 0
-0.0244251030816 -0.0200987986315 0
-0.0253864300187 -0.0221655580716 0
-0.0263753907355 -0.0244524229255 0
-0.0273938803608 -0.0269939314076 0
-0.0284465932625 -0.0298341964687 0
-0.0295448042711 -0.0330290710278 0
-0.0307218596806 -0.0366591485903 0
-0.0320481626024 -0.0407677520658 0
-0.0339302542903 -0.045841666584 0
-0.0362321534389 -0.0474570520173 0
-0.032553193251 -0.0747878667155 0
-0.0291555991934 -0.0891924536285 0
-0.0250357978148 -0.0957563848334 0
-0.0227689824283 -0.0854775716557 0
-0.0210575758286 -0.0633247274034 0
-0.0220411052873 -0.0602522766634 0
-0.0231153293606 -0.056761839873 0
-0.023834392942 -0.0545061281976 0
-0.0242991723193 -0.0528359033043 0
-0.0245149080505 -0.0514383375094 0
-0.0265585704111 -0.0501195638856 0
-0.0283789978966 -0.0504883624515 0
-0.029467813493 -0.0510029260599 0
-0.0296153004843 -0.0513401809592 0
-0.0289343033304 -0.0512505391003 0
-0.0276725436366 -0.0506390288432 0
-0.0260772147183 -0.049531287761 0
-0.0243383083517 -0.0480123794123 0
-0.0225822476368 -0.0461815970233 0
-0.0208849795677 -0.0441293742544 0
-0.0192877595192 -0.0419294667963 0
-0.0178097151558 -0.0396385541535 0
-0.0164565256407 -0.0372986781294 0
-0.0152259931155 -0.0349403011624 0
-0.0141114635213 -0.0325851071995 0
-0.0131038448487 -0.0302482853196 0
-0.0121927331211 -0.0279402894671 0
-0.0113669694318 -0.0256681511551 0
-0.0106148213384 -0.0234364348265 0
-0.00992389305562 -0.0212479115882 0
-0.00928080504435 -0.0191040030901 0
-0.00867062448628 -0.0170050194817 0
-0.00807597563213 -0.0149501682326 0
-0.00747558471273 -0.0129372752968 0
-0.00684213041758 -0.0109618516454 0
-0.00613708528924 -0.009015537094 0
-0.00530724482931 -0.00707885641192 0
-0.00423781004554 -0.00511672561762 0
-0.00283917875689 -0.00295160394975 0
-0.00237020644969 0.000724083682932 0
-0.0023216557943 0.000724371785789 0
-0.00227302666169 0.000725002149612 0
-0.00222374294843 0.000725963787427 0
-0.002173265093 0.000727169112452 0
-0.00212112823861 0.000728467671548 0
-0.00206694586336 0.00072966352736 0
-0.00201040404456 0.000730529284345 0
-0.00195125361588 0.000730816233424 0
-0.00188930233564 0.000730261354837 0
-0.00182440770407 0.000728591954199 0
-0.00175647056056 0.00072552850517 0
-0.00168542942352 0.000720786081918 0
-0.00161125547974 0.000714074615178 0
-0.00153394811046 0.000705098088434 0
-0.00145353082861 0.000693552689066 0
-0.00137004747778 0.000679123826019 0
-0.00128355849488 0.000661481800146 0
-0.00119413694248 0.000640275736981 0
-0.00110186384061 0.000615125114359 0
-0.00100682195858 0.000585607752392 0
-0.000909086647203 0.000551242278736 0
-0.000808710343219 0.000511461515481 0
-0.000705696678688 0.000465569773506 0
-0.000599940212434 0.000412670195378 0
-0.000491147367532 0.000351531190662 0
-0.000378386387507 0.000280303485215 0
-0.000260285961185 0.000196122267777 0
-0.000128112556459 9.37105452409e-05 0
-0.00237011117477 0.000686958983803 0
-0.0023217355913 0.000687054075778 0
-0.00227325928293 0.000687371398392 0
-0.00222408309902 0.000687837068425 0
-0.00217365481651 0.000688337406459 0
-0.00212149905659 0.000688725013992 0
-0.00206722083244 0.000688822506719 0
-0.00201049986435 0.000688428226621 0
-0.00195108239586 0.000687321924949 0
-0.00188877293622 0.000685269482772 0
-0.00182342666168 0.000682026444633 0
-0.00175494263928 0.000677340407347 0
-0.00168325783268 0.000670952369185 0
-0.00160834178406 0.000662597131432 0
-0.00153019184227 0.00065200280306 0
-0.00144882879252 0.000638889405423 0
-0.00136429271566 0.000622966508816 0
-0.00127663885024 0.000603929750254 0
-0.00118593312792 0.000581455970201 0
-0.00109224685333 0.000555196547572 0
-0.000995649667009 0.000524768283138 0
-0.000896199122877 0.000489740859204 0
-0.000793924451745 0.000449619561526 0
-0.000688796688762 0.000403821661907 0
-0.000580684490696 0.000351648607529 0
-0.000469225066355 0.000292259504271 0
-0.000353814015375 0.000224802804096 0
-0.000232752455923 0.000148834386475 0
-0.000108578335444 7.10796664302e-05 0
-0.00236985461423 0.000649715688967 0
-0.00232170252101 0.000649621006603 0
-0.00227339976961 0.000649668256529 0
-0.00222432091984 0.000649745904557 0
-0.00217391294344 0.000649714232596 0
-0.00212170033595 0.000649417550248 0
-0.00206728672391 0.00064868444797 0
-0.0020103498469 0.00064732835016 0
-0.00195063399303 0.000645149313702 0
-0.00188794199778 0.000641936278297 0
-0.00182212768068 0.000637469162233 0
-0.00175308898772 0.000631520501642 0
-0.00168076186196 0.000623856510069 0
-0.00160511476687 0.000614237518151 0
-0.0015261437481 0.000602417782628 0
-0.00144386789715 0.00058814465652 0
-0.0013583250531 0.000571157102931 0
-0.00126956753251 0.0005511835244 0
-0.00117765759414 0.00052793888205 0
-0.00108266221143 0.000501121125943 0
-0.000984646473411 0.000470407124595 0
-0.000883664694866 0.000435448806967 0
-0.000779747377721 0.000395871570797 0
-0.000672884225295 0.000351281734936 0
-0.000562996040632 0.000301299136335 0
-0.00044994776069 0.000245687728564 0
-0.000333566688823 0.00018468626772 0
-0.00021481265852 0.000120531437423 0
-9.91931982039e-05 5.77718917732e-05 0
-0.00236943261831 0.000612597314534 0
-0.0023215868305 0.00061234905276 0
-0.00227350439531 0.000612197668595 0
-0.00222454330388 0.000611997171073 0
-0.00217415497677 0.000611586972664 0
-0.00212187147333 0.000610800783496 0
-0.00206730173527 0.000609467066932 0
-0.00201012657369 0.000607407545299 0
-0.00195009190922 0.000604436550689 0
-0.00188700143746 0.000600361297684 0
-0.001820709467 0.000594982630548 0
-0.00175111426872 0.000588095862005 0
-0.00167815203484 0.000579491468775 0
-0.00160179143028 0.000568955522407 0
-0.0015220286651 0.00055626980835 0
-0.00143888298963 0.000541211638259 0
-0.00135239249483 0.00052355340981 0
-0.00126261007945 0.000503062038777 0
-0.00116959942443 0.000479498518072 0
-0.00107343079807 0.000452618121683 0
-0.000974176584844 0.000422172337174 0
-0.000871906621465 0.000387914811327 0
-0.000766684816758 0.000349616488301 0
-0.000658570465013 0.000307100868425 0
-0.000547645454656 0.000260328552676 0
-0.00043410302324 0.000209576925444 0
-0.000318643515226 0.000155887674048 0
-0.000203548639782 0.000101456925541 0
-9.43583749493e-05 4.91422276808e-05 0
-0.00236886299424 0.000575852135648 0
-0.00232143479384 0.000575496101854 0
-0.00227363885052 0.000575222845595 0
-0.00222483485862 0.000574851144294 0
-0.00217448524986 0.000574200969475 0
-0.00212213517436 0.000573095552504 0
-0.00206740443157 0.000571360665025 0
-0.00200998169937 0.000568822381752 0
-0.00194961838865 0.000565305157555 0
-0.00188612208386 0.000560630793201 0
-0.0018193499989 0.00055461813933 0
-0.0017492027559 0.000547083245317 0
-0.00167561863712 0.000537839714507 0
-0.00159856835442 0.000526699122849 0
-0.00151805032496 0.000513471448609 0
-0.00143408641771 0.000497965546611 0
-0.00134671813355 0.000479989797973 0
-0.00125600320372 0.000459353205437 0
-0.00116201265454 0.000435867435593 0
-0.00106482855031 0.000409350728111 0
-0.000964543005184 0.000379635372017 0
-0.000861260080755 0.000346581982454 0
-0.000755104374848 0.000310106594728 0
-0.000646247128683 0.000270232538906 0
-0.000534973095148 0.000227185159607 0
-0.000421858867689 0.000181563555041 0
-0.000308183255759 0.000134534703415 0
-0.000196632647351 8.78148208247e-05 0
-9.19052113494e-05 4.29634926954e-05 0
-0.00236818272253 0.00053971101583 0
-0.00232130028818 0.000539296910533 0
-0.00227387191215 0.000538975944572 0
-0.00222527785946 0.00053853234536 0
-0.00217499984953 0.000537766750416 0
-0.00212260127644 0.000536491871901 0
-0.0020677173994 0.00053452963405 0
-0.00201004902187 0.000531708197413 0
-0.00194935677977 0.000527859357216 0
-0.00188545532774 0.000522816730872 0
-0.00181820750031 0.000516414754687 0
-0.00174751866273 0.000508488318516 0
-0.00167333141591 0.000498872854736 0
-0.00159562075131 0.000487404760247 0
-0.00151438970958 0.000473922117687 0
-0.00142966558472 0.000458265783617 0
-0.0013414967394 0.000440281037983 0
-0.00124995016797 0.000419820168137 0
-0.00115511010099 0.000396746640357 0
-0.00105707827067 0.000370941971116 0
-0.000955977150904 0.000342317186379 0
-0.00085195890497 0.000310832006829 0
-0.000745225991424 0.000276526911011 0
-0.000636075467194 0.000239575057433 0
-0.000524992854712 0.000200361809701 0
-0.000412838242371 0.000159577996086 0
-0.000301160442904 0.000118255010159 0
-0.000192566725036 7.75730393125e-05 0
-9.08099691988e-05 3.82944705586e-05 0
-0.00236744539678 0.000504379191662 0
-0.00232124309043 0.000503959301089 0
-0.00227427301129 0.000503660424195 0
-0.00222595146017 0.000503235123627 0
-0.00217578788414 0.000502465092984 0
-0.00212336906901 0.000501152389081 0
-0.00206834984436 0.000499114381875 0
-0.00201044689868 0.000496179913303 0
-0.00194943355283 0.000492186208004 0
-0.00188513465484 0.000486976599564 0
-0.00181742146724 0.000480399084908 0
-0.0017462066661 0.000472305613852 0
-0.00167143960827 0.000462551993327 0
-0.00159310200054 0.000450998324588 0
-0.00151120408526 0.000437509967832 0
-0.00142578146495 0.000421959130652 0
-0.00133689273891 0.00040422730997 0
-0.00124461824157 0.000384209000749 0
-0.00114906040304 0.000361817350253 0
-0.001050346694 0.000336992827634 0
-0.000948636945777 0.000309716527998 0
-0.000844138418469 0.000280030424723 0
-0.000737134789762 0.000248067304218 0
-0.000628040132531 0.000214092226388 0
-0.000517494781348 0.000178550114338 0
-0.000406519400315 0.00014209415665 0
-0.000296714869102 0.000105533550093 0
-0.000190411873747 6.96175491827e-05 0
-9.05460153012e-05 3.46334286119e-05 0
-0.00236671805815 0.000470034379005 0
-0.00232132842339 0.000469663078166 0
-0.00227491181804 0.000469452037681 0
-0.00222693158721 0.000469126487213 0
-0.0021769322387 0.000468450370495 0
-0.00212452880845 0.000467215186904 0
-0.00206939946444 0.000465233290558 0
-0.0020112801458 0.000462333235705 0
-0.00194996001198 0.000458356279475 0
-0.00188527705904 0.000453153811579 0
-0.00181711373392 0.000446585640666 0
-0.00174539261415 0.000438519066137 0
-0.0016700723004 0.000428828659651 0
-0.00159114368313 0.000417396711311 0
-0.00150862675035 0.000404114359416 0
-0.00142256813169 0.00038888351391 0
-0.00133303964757 0.000371619803507 0
-0.00124013827943 0.000352256932599 0
-0.00114398824576 0.00033075303554 0
-0.00104474633956 0.000307099858636 0
-0.000942612491517 0.000281335834256 0
-0.000837848835163 0.000253564125452 0
-0.00073081252096 0.000223975974633 0
-0.000622009699793 0.000192876662977 0
-0.000512178106232 0.000160703744783 0
-0.000402396878894 0.000128013169771 0
-0.000294194325438 9.53945908194e-05 0
-0.000189572513985 6.32829679478e-05 0
-9.08177645522e-05 3.16913996187e-05 0
-0.00236607800031 0.000436827572563 0
-0.00232162640407 0.000436560872495 0
-0.00227585841756 0.000436500106827 0
-0.00222829131881 0.000436348095719 0
-0.00217851030419 0.00043585293602 0
-0.00212616286624 0.000434796054292 0
-0.00207095388815 0.000432984568569 0
-0.0020126415738 0.000430246042687 0
-0.00195103377195 0.000426424673341 0
-0.00188598435874 0.000421378521182 0
-0.00181738957812 0.000414977633899 0
-0.00174518440819 0.000407102980766 0
-0.00166933910343 0.000397646144159 0
-0.00158985609693 0.000386509746222 0
-0.00150676747103 0.00037360864178 0
-0.00142013324923 0.000358871982052 0
-0.00133004084873 0.000342246345876 0
-0.0012366061899 0.000323700242394 0
-0.00113997722271 0.000303230398774 0
-0.0010403410529 0.000280870318258 0
-0.000937936487292 0.000256701516406 0
-0.000833074679061 0.000230867361784 0
-0.000726171421929 0.000203588006074 0
-0.000617794639945 0.000175171615883 0
-0.000508727479622 0.000146011236288 0
-0.000400037247543 0.00011654935509 0
-0.000293119769123 8.71896020847e-05 0
-0.000189661389732 5.81492201095e-05 0
-9.14486132263e-05 2.92873421294e-05 0
-0.00236560991769 0.000404884954415 0
-0.00232221124807 0.000404779995999 0
-0.0022771834861 0.000404929290186 0
-0.00223010140993 0.000405018143617 0
-0.00218059472838 0.000404781130356 0
-0.0021283467196 0.000403990446906 0
-0.00207309186705 0.000402447997015 0
-0.00201461328934 0.000399979852726 0
-0.00195274007027 0.000396432254028 0
-0.00188734444647 0.000391668720441 0
-0.00181833886909 0.000385568075672 0
-0.00174567304384 0.000378023288545 0
-0.00166933111597 0.000368941080556 0
-0.00158932920479 0.000358242286334 0
-0.00150571352644 0.000345862995734 0
-0.00141855939547 0.000331756558403 0
-0.0013279714834 0.000315896588953 0
-0.0012340858577 0.000298281161124 0
-0.0011370745468 0.000278938394984 0
-0.00103715369374 0.00025793356204 0
-0.000934596757772 0.000235377536579 0
-0.000829754587199 0.000211435678151 0
-0.000723084153586 0.000186334692704 0
-0.000615186445358 0.00016036235538 0
-0.000506849948324 0.000133851421768 0
-0.000399087556607 0.000107136428027 0
-0.000293141643256 8.04747830821e-05 0
-0.000190419863143 5.39374358735e-05 0
-9.2327529199e-05 2.73010225259e-05 0
-0.00236540352132 0.000374310197815 0
-0.00232316034976 0.000374424736343 0
-0.00227895831232 0.000374841684479 0
-0.00223243076818 0.000375233333526 0
-0.00218325413069 0.000375323192956 0
-0.00213114984788 0.000374875313608 0
-0.00207588432398 0.00037368661153 0
-0.00201726784887 0.00037158133013 0
-0.00195515297082 0.000368406999063 0
-0.0018894324972 0.000364031503219 0
-0.00182003725804 0.000358341054446 0
-0.00174693378951 0.000351238959452 0
-0.00167012212862 0.000342645131395 0
-0.00158963394191 0.000332496327963 0
-0.00150553124577 0.000320747130142 0
-0.00141790602571 0.000307371705838 0
-0.00132688113979 0.000292366424635 0
-0.001232613007 0.00027575338698 0
-0.00113529673979 0.000257584869486 0
-0.00103517456694 0.000237948506469 0
-0.00093254854714 0.000216972622752 0
-0.000827798530809 0.000194830355361 0
-0.000721405726737 0.000171739905401 0
-0.000613980440205 0.000147956480285 0
-0.000506288764113 0.000123749804555 0
-0.000399266803715 9.93610925804e-05 0
-0.000294003662301 7.49377196966e-05 0