# vtk DataFile Version 2.0
Generated with Solid Solver
ASCII
DATASET UNSTRUCTURED_GRID
POINTS 91 float 
0.2 4.5 0.0
1.4 4.5 0.0
1.4 5.4 0.0
0.2 5.4 0.0
1.4 4.65 0.0
1.4 4.8 0.0
1.4 4.95 0.0
1.4 5.1 0.0
1.4 5.25 0.0
1.3 5.4 0.0
1.2 5.4 0.0
1.1 5.4 0.0
1.0 5.4 0.0
0.900000000001 5.4 0.0
0.800000000001 5.4 0.0
0.700000000001 5.4 0.0
0.600000000001 5.4 0.0
0.500000000001 5.4 0.0
0.4 5.4 0.0
0.3 5.4 0.0
0.2 5.25 0.0
0.2 5.1 0.0
0.2 4.95 0.0
0.2 4.8 0.0
0.2 4.65 0.0
0.276421996263 4.4130027244 0.0
0.365325019359 4.33880636358 0.0
0.464589803374 4.27917960675 0.0
0.571850079243 4.23554383363 0.0
0.684548981759 4.20893923165 0.0
0.799999999998 4.2 0.0
0.915451018238 4.20893923165 0.0
1.02814992075 4.23554383363 0.0
1.13541019662 4.27917960675 0.0
1.23467498064 4.33880636358 0.0
1.32357800374 4.4130027244 0.0
1.31964833645 4.57750227033 0.0
1.2288958172 4.51567196965 0.0
1.12950849719 4.46598300562 0.0
1.0234582673 4.42961986136 0.0
0.912875848532 4.40744935971 0.0
0.799999999998 4.4 0.0
0.687124151466 4.40744935971 0.0
0.576541732702 4.42961986136 0.0
0.470491502812 4.46598300563 0.0
0.371104182799 4.51567196965 0.0
0.280351663553 4.57750227033 0.0
1.31571866916 4.74200181627 0.0
1.22311665376 4.69253757572 0.0
1.12360679775 4.6527864045 0.0
1.01876661384 4.62369588909 0.0
0.910300678826 4.60595948777 0.0
0.799999999999 4.6 0.0
0.689699321173 4.60595948777 0.0
0.581233386162 4.62369588909 0.0
0.476393202249 4.6527864045 0.0
0.376883346239 4.69253757572 0.0
0.284281330842 4.74200181627 0.0
1.31178900187 4.9065013622 0.0
1.21733749032 4.86940318179 0.0
1.11770509831 4.83958980337 0.0
1.01407496038 4.81777191682 0.0
0.90772550912 4.80446961582 0.0
0.8 4.8 0.0
0.69227449088 4.80446961582 0.0
0.585925039622 4.81777191682 0.0
0.482294901687 4.83958980338 0.0
0.38266250968 4.86940318179 0.0
0.288210998132 4.9065013622 0.0
1.30785933458 5.07100090813 0.0
1.21155832688 5.04626878786 0.0
1.11180339888 5.02639320225 0.0
1.00938330692 5.01184794454 0.0
0.905150339413 5.00297974388 0.0
0.8 5.0 0.0
0.694849660587 5.00297974388 0.0
0.590616693081 5.01184794455 0.0
0.488196601125 5.02639320225 0.0
0.38844167312 5.04626878786 0.0
0.292140665421 5.07100090813 0.0
1.30392966729 5.23550045407 0.0
1.20577916344 5.22313439393 0.0
1.10590169944 5.21319660113 0.0
1.00469165346 5.20592397227 0.0
0.902575169707 5.20148987194 0.0
0.800000000001 5.2 0.0
0.697424830294 5.20148987194 0.0
0.595308346541 5.20592397227 0.0
0.494098300563 5.21319660113 0.0
0.39422083656 5.22313439393 0.0
0.296070332711 5.23550045407 0.0
CELLS 72 360
4 1 4 36 35
4 35 36 37 34
4 34 37 38 33
4 33 38 39 32
4 32 39 40 31
4 31 40 41 30
4 30 41 42 29
4 29 42 43 28
4 28 43 44 27
4 27 44 45 26
4 26 45 46 25
4 25 46 24 0
4 4 5 47 36
4 36 47 48 37
4 37 48 49 38
4 38 49 50 39
4 39 50 51 40
4 40 51 52 41
4 41 52 53 42
4 42 53 54 43
4 43 54 55 44
4 44 55 56 45
4 45 56 57 46
4 46 57 23 24
4 5 6 58 47
4 47 58 59 48
4 48 59 60 49
4 49 60 61 50
4 50 61 62 51
4 51 62 63 52
4 52 63 64 53
4 53 64 65 54
4 54 65 66 55
4 55 66 67 56
4 56 67 68 57
4 57 68 22 23
4 6 7 69 58
4 58 69 70 59
4 59 70 71 60
4 60 71 72 61
4 61 72 73 62
4 62 73 74 63
4 63 74 75 64
4 64 75 76 65
4 65 76 77 66
4 66 77 78 67
4 67 78 79 68
4 68 79 21 22
4 7 8 80 69
4 69 80 81 70
4 70 81 82 71
4 71 82 83 72
4 72 83 84 73
4 73 84 85 74
4 74 85 86 75
4 75 86 87 76
4 76 87 88 77
4 77 88 89 78
4 78 89 90 79
4 79 90 20 21
4 8 2 9 80
4 80 9 10 81
4 81 10 11 82
4 82 11 12 83
4 83 12 13 84
4 84 13 14 85
4 85 14 15 86
4 86 15 16 87
4 87 16 17 88
4 88 17 18 89
4 89 18 19 90
4 90 19 3 20
CELL_TYPES 72
9 
9 
9 
9 
9 
9 
9 
9 
9 
9 
9 
9 
9 
9 
9 
9 
9 
9 
9 
9 
9 
9 
9 
9 
9 
9 
9 
9 
9 
9 
9 
9 
9 
9 
9 
9 
9 
9 
9 
9 
9 
9 
9 
9 
9 
9 
9 
9 
9 
9 
9 
9 
9 
9 
9 
9 
9 
9 
9 
9 
9 
9 
9 
9 
9 
9 
9 
9 
9 
9 
9 
9 
POINT_DATA 91
VECTORS Displacement float
-0.0165181692008 -0.685336672244 0
-0.00937678815109 -0.69547151002 0
0.0 -0.7 0
0.0 -0.7 0
-0.0049371053487 -0.695506691301 0
-0.0022512789804 -0.696064681444 0
-0.000457995270383 -0.696902084825 0
0.000681836087396 -0.697822208205 0
0.0010781135316 -0.698722923309 0
0.0 -0.7 0
0.0 -0.7 0
0.0 -0.7 0
0.0 -0.7 0
0.0 -0.7 0
0.0 -0.7 0
0.0 -0.7 0
0.0 -0.7 0
0.0 -0.7 0
0.0 -0.7 0
0.0 -0.7 0
-0.00541168623499 -0.694747344468 0
-0.00868191869523 -0.691351250174 0
-0.0116474981959 -0.688691026937 0
-0.0141976065189 -0.686738577435 0
-0.0160635821512 -0.685596489639 0
-0.0164246654075 -0.685104667276 0
-0.0159537330953 -0.684078374866 0
-0.0150537421803 -0.679358570136 0
-0.0151110939466 -0.675748436242 0
-0.0161099710007 -0.67357474239 0
-0.0174593168762 -0.673034066129 0
-0.0183964218162 -0.674559711254 0
-0.0185977060006 -0.677886780458 0
-0.0178252535961 -0.682216092357 0
-0.0156416888253 -0.687555286601 0
-0.012412300273 -0.692665870962 0
-0.00686274415698 -0.693021096121 0
-0.0088673968955 -0.689418140755 0
-0.0109304617255 -0.685256592002 0
-0.012608880086 -0.681589561397 0
-0.013755363636 -0.678964292628 0
-0.0145504300769 -0.677666531432 0
-0.0151955683194 -0.677886009134 0
-0.0158469522556 -0.679518313245 0
-0.0165039918186 -0.682135671087 0
-0.016673362944 -0.68437047937 0
-0.0164195163015 -0.685462708503 0
-0.00342472131009 -0.694176544462 0
-0.00483177718998 -0.691629495175 0
-0.00642666693963 -0.688740281415 0
-0.00813779500123 -0.686037629863 0
-0.009809256627 -0.684042067289 0
-0.0113462801753 -0.68303585896 0
-0.0127105099197 -0.683084545212 0
-0.0138204874835 -0.68402869825 0
-0.0145022651652 -0.685347461644 0
-0.0147418951214 -0.686421852895 0
-0.0146304688328 -0.686914996857 0
-0.00123541382702 -0.695590235265 0
-0.0022179167071 -0.693926528713 0
-0.00344463626159 -0.692088910627 0
-0.00487104901845 -0.690360089503 0
-0.00641043730878 -0.689030477954 0
-0.0079404959787 -0.68829497424 0
-0.00933110233053 -0.688179348333 0
-0.0104583686125 -0.688517051956 0
-0.0112509073424 -0.689010948697 0
-0.011688037078 -0.689341953395 0
-0.0117886587051 -0.689273820138 0
0.000190733693915 -0.697070428795 0
-0.000498305806418 -0.696161661489 0
-0.00136728482674 -0.695151208974 0
-0.00240063915078 -0.694197842297 0
-0.00354185479103 -0.693445901864 0
-0.00470561510552 -0.692984833476 0
-0.00579620771101 -0.692817467476 0
-0.00673583387654 -0.692854988884 0
-0.00748236103537 -0.692935046049 0
-0.00804309596918 -0.692848084196 0
-0.00846409259997 -0.692334170978 0
0.000712011415158 -0.698625287785 0
0.00031881239632 -0.698253043325 0
-0.000153084608307 -0.697838901295 0
-0.000710571247623 -0.697449108374 0
-0.00132871663738 -0.697134689511 0
-0.00196345907877 -0.696924360412 0
-0.00256649944926 -0.696817608593 0
-0.00310037335157 -0.696781882849 0
-0.00355622025629 -0.696753220411 0
-0.00397434568803 -0.696631863682 0
-0.00448788062039 -0.696254836451 0
SCALARS EPSXX float
LOOKUP_TABLE default
-0.000252780228585
-0.000904601415814
0.00307661134167
0.00946513073494
0.00189544172088
0.00488675106445
0.00513120820065
0.00515691083158
0.00414905623152
0.0029502543814
0.00303088310136
0.00338311273018
0.00376243755013
0.00402209690554
0.00410092387553
0.00402298579917
0.00390846900411
0.00400400578213
0.00479708370556
0.007312716352
0.0124025178158
0.0134502231318
0.0102912530827
0.00756315704619
0.00292065057683
-0.000383876103559
0.00125916275837
0.00175403211337
-0.000579289504138
-0.00256247822279
-0.00290287193748
-0.00242942224016
-0.00190981077777
-0.000402300055518
0.00157109487576
0.000920038534379
0.00341323287688
0.00516605873147
0.00525414169907
0.00485262862193
0.00479709428423
0.00485453997236
0.00527355840378
0.00620087480228
0.00635525015702
0.00447715361243
0.00283172069365
0.00632545782615
0.00937725250449
0.0120542187305
0.0136652467765
0.0146300435656
0.0152594588909
0.0153825545147
0.0145739315843
0.0123712424064
0.00959579380999
0.00787625373483
0.00659265415686
0.00955927736245
0.0124772718388
0.0148451151085
0.0163628207969
0.0170080714192
0.0167582904884
0.0155826706132
0.0138480625342
0.0121833522544
0.0107971956481
0.0060936654671
0.00811248499017
0.0101835930303
0.0119920186984
0.013235468783
0.0137567082108
0.0135871728679
0.0129758253329
0.0123505685888
0.0122041116487
0.012743265775
0.00436436483958
0.00507092609921
0.0059830895043
0.00685343359949
0.00745996809549
0.00770125386479
0.00761686755299
0.00739658071757
0.00739026135968
0.00816717679143
0.0104519194162
SCALARS EPSYY float
LOOKUP_TABLE default
-0.00269841493246
-0.00225088678274
-0.0113457279629
-0.0383397753265
-0.0050690278295
-0.00889040710474
-0.0102306945331
-0.0105621737691
-0.0110316627257
-0.0117009435498
-0.0133275478483
-0.0155029874554
-0.0175353195983
-0.0192138675796
-0.0204707573476
-0.021383374081
-0.0221961016571
-0.0233789501809
-0.0258062178539
-0.0324056058004
-0.0349762463997
-0.0278803196745
-0.021463658745
-0.0148264676182
-0.00698323358223
-0.00280162596915
-0.00810968441424
-0.0184062118045
-0.0257243543427
-0.0287321649154
-0.0299878128012
-0.0290884977711
-0.0263651151536
-0.0222927611934
-0.0153529531815
-0.00671764811978
-0.00898142302336
-0.0168663562608
-0.0239008035621
-0.0285664588375
-0.0315081241381
-0.0325978374663
-0.031503931753
-0.0280659666226
-0.0210899380377
-0.0125348127735
-0.00769391643084
-0.0119540183529
-0.0184360799389
-0.0250317312609
-0.0302277645362
-0.0334970501161
-0.0348040294853
-0.0339162572182
-0.0305143217923
-0.0251221465373
-0.019674663205
-0.0159431522194
-0.0127120276544
-0.017987339428
-0.0234174840727
-0.0280635609672
-0.031247187277
-0.032651561747
-0.0322116187499
-0.0301631281543
-0.0272304114572
-0.0243043267032
-0.0220329422952
-0.012640539828
-0.0168106273743
-0.0208280384444
-0.0243703738052
-0.0269923683076
-0.0284441555057
-0.0287659497877
-0.0283090265971
-0.0276550587339
-0.0274295739585
-0.0274540468893
-0.0121387537419
-0.0147328871911
-0.0174420635385
-0.0199242748351
-0.0218952150858
-0.0232358660072
-0.0240241851814
-0.0245524675676
-0.0253442124651
-0.0272354237379
-0.0313749648014
SCALARS EPSXY float
LOOKUP_TABLE default
0.001229778994
-0.000223414535386
-0.00372660888841
0.0145311450173
-0.000982842350171
-0.00136411642101
-0.000549959774631
4.95569277435e-05
-0.00182442144509
-0.00322976926261
-0.0020268272647
-0.000329556548926
0.00163753204313
0.00380276825872
0.00603741474553
0.00819702086699
0.0101645012773
0.0118936854924
0.0134661478863
0.0142765045372
0.00890009905427
0.00282467225155
0.00293450533376
0.00323060066563
0.00227657700181
0.00352999331703
0.0110360331304
0.0133578420293
0.00983017508156
0.0080558944988
0.00647738434835
0.00439347595896
0.00275996802484
0.000486646682782
-0.00275132610073
-0.00252137354812
-0.00255509238554
-0.00291693897081
-0.000382366809873
0.0022873843992
0.00458500808269
0.00708632748448
0.00940281958282
0.0117361452259
0.0138867856391
0.0112148994281
0.00490540130998
-0.00206758239607
-0.00244168855364
-0.000935765943143
0.00186523129924
0.00498780584609
0.00813107165425
0.011147796533
0.0134560145536
0.0135934348031
0.0107496712382
0.00604687502762
-0.000872579813424
-0.000954310996874
0.000133375679326
0.00240754489653
0.00539893334905
0.00851252031856
0.0111704024611
0.0126222305303
0.0121571732769
0.00961914132244
0.00548436211689
-0.00014692381045
-2.10722681674e-05
0.00104114289742
0.00294965655716
0.00542039181725
0.00802653608551
0.0102550111888
0.0116017637348
0.0116400755013
0.00993061575658
0.00580704054785
-0.00168378782927
-0.000983635084622
0.000438929653478
0.00232714599536
0.00452774188828
0.00681995518104
0.00895163291575
0.0106848288327
0.0118133902101
0.0121014509666
0.0104510250196
SCALARS SIGXX float
LOOKUP_TABLE default
-15025259.8276
-19379221.8189
-22326920.8293
-84639100.917
-4835160.2252
6937510.2385
3125828.6006
1840148.83122
-10285573.1581
-25223352.8719
-31981285.5181
-38607722.252
-44302224.9765
-49534695.4715
-54593538.18
-59600615.3277
-64504789.3881
-69054908.8996
-72500480.6054
-78322230.4224
-40033467.4069
3257161.81678
1881907.04965
5782614.58566
-3607518.67346
-16798204.111
-25234082.5989
-68165420.8853
-125174448.445
-158712165.073
-167902116.127
-159053895.042
-141279596.793
-107492381.282
-55792014.0273
-22116267.1725
-8025844.16918
-27344759.6792
-59141918.4553
-84770289.7761
-98978723.5118
-103472227.887
-94257500.6867
-69141607.0554
-35223149.4325
-14028188.451
-7785328.39218
6907978.73579
6921919.82632
2709563.97442
-5521978.43703
-11183164.4384
-11041398.48
-5704078.05902
2114229.19704
5418090.03486
3326791.26601
3686629.30997
6024654.0809
10801991.7669
14380452.0949
16171044.021
16363752.5228
16209500.855
15787653.8163
13699342.3664
10201071.3585
7361755.54881
4230932.63262
1432600.06792
1989406.51369
3771191.34893
5166965.82173
5261405.85664
3663236.19767
495920.181357
-3415018.84489
-6548183.79093
-6946323.17729
-1739589.68472
-13301982.1177
-18376187.8868
-21955741.795
-24893995.4854
-28061300.1753
-31905964.8828
-36399463.8984
-41026479.8052
-44765521.343
-45881261.5452
-42558471.4782
SCALARS SIGYY float
LOOKUP_TABLE default
-27801848.4017
-26412542.9479
-97672717.6811
-334383519.25
-41219237.5126
-65037703.9545
-77128475.3782
-80280159.8098
-89593329.1649
-101764762.67
-117441694.479
-137273288.07
-155566871.412
-170925006.903
-182961957.661
-192329598.459
-200881394.903
-212110109.143
-232379546.934
-285820374.031
-287551617.43
-212663613.328
-164013450.499
-111186212.449
-55347810.462
-29429115.53
-74179211.4643
-173487422.444
-256538362.935
-295428952.522
-309400413.246
-298327368.421
-269040035.411
-221853457.045
-144207343.878
-62017393.8142
-72778531.3571
-142447436.79
-211454420.365
-259359704.261
-288645985.815
-299132526.991
-286392025.021
-248159893.772
-178603465.941
-102902824.964
-62773808.4001
-88588436.2119
-138381671.484
-191036429.314
-234829710.264
-262610769.005
-272585198.361
-263253021.779
-233437736.928
-190456463.113
-149589172.049
-120751721.796
-94827683.6238
-133108212.314
-173142454.546
-207994281.902
-232362471.475
-243224461.504
-240043023.537
-225287800.286
-204402835.19
-183258724.823
-167281666.804
-96439430.0193
-128214974.445
-158241089.446
-184798987.742
-204898567.307
-216804306.369
-220767059.995
-219097093.776
-215547279.259
-214002304.956
-211740095.846
-99518274.3431
-121836109.44
-144334420.115
-164787235.913
-181419893.522
-193528979.002
-201699993.941
-207936053.271
-215778348.233
-230833029.159
-261072254.482
SCALARS SIGXY float
LOOKUP_TABLE default
6424663.59289
-1167171.69395
-19468708.2534
75914224.272
-5134606.7021
-7126474.87826
-2873123.18625
258897.404333
-9531219.91312
-16873097.6022
-10588636.9829
-1721683.30408
8554864.37078
19866583.2668
31540918.2464
42823224.1657
53101818.794
62135496.3301
70350421.0788
74583920.6734
46496275.0593
14756772.6111
15330567.2588
16877441.0532
11893390.1549
18441540.8441
57654912.4754
69784605.0256
51355217.6988
42085945.8058
33839426.1108
22952583.4947
14418742.0449
2542360.24581
-14373594.5383
-13172266.6574
-13348422.0384
-15238796.3202
-1997576.90976
11949850.6188
23953193.7411
37020692.6765
49122608.9721
61312467.7863
72547934.6721
58589353.3758
25627005.6316
-10801551.6692
-12755972.9287
-4888668.13933
9744420.4845
26057506.905
42478689.4907
58238791.5847
70297482.092
71015398.7898
56158888.5295
31590341.0534
-4558568.47983
-4985551.99579
696786.882299
12577598.1867
28205336.6478
44471469.7854
58356890.433
65941592.2248
63512020.392
50252726.1815
28651637.241
-767565.603685
-110086.637335
5439182.89442
15409720.9229
28317440.8877
41932570.3376
53574664.5136
60610426.2996
60810576.2552
51879944.1344
30337387.5894
-8796515.81109
-5138748.13906
2293074.91696
12157574.8363
23654021.2587
35629099.1882
46765500.4447
55820136.0836
61716014.3098
63220913.5347
54598688.2842
