# vtk DataFile Version 2.0
Generated with Solid Solver
ASCII
DATASET UNSTRUCTURED_GRID
POINTS 91 float 
0.2 4.5 0.0
1.4 4.5 0.0
1.4 5.4 0.0
0.2 5.4 0.0
1.4 4.65 0.0
1.4 4.8 0.0
1.4 4.95 0.0
1.4 5.1 0.0
1.4 5.25 0.0
1.3 5.4 0.0
1.2 5.4 0.0
1.1 5.4 0.0
1.0 5.4 0.0
0.900000000001 5.4 0.0
0.800000000001 5.4 0.0
0.700000000001 5.4 0.0
0.600000000001 5.4 0.0
0.500000000001 5.4 0.0
0.4 5.4 0.0
0.3 5.4 0.0
0.2 5.25 0.0
0.2 5.1 0.0
0.2 4.95 0.0
0.2 4.8 0.0
0.2 4.65 0.0
0.276421996263 4.4130027244 0.0
0.365325019359 4.33880636358 0.0
0.464589803374 4.27917960675 0.0
0.571850079243 4.23554383363 0.0
0.684548981759 4.20893923165 0.0
0.799999999998 4.2 0.0
0.915451018238 4.20893923165 0.0
1.02814992075 4.23554383363 0.0
1.13541019662 4.27917960675 0.0
1.23467498064 4.33880636358 0.0
1.32357800374 4.4130027244 0.0
1.31964833645 4.57750227033 0.0
1.2288958172 4.51567196965 0.0
1.12950849719 4.46598300562 0.0
1.0234582673 4.42961986136 0.0
0.912875848532 4.40744935971 0.0
0.799999999998 4.4 0.0
0.687124151466 4.40744935971 0.0
0.576541732702 4.42961986136 0.0
0.470491502812 4.46598300563 0.0
0.371104182799 4.51567196965 0.0
0.280351663553 4.57750227033 0.0
1.31571866916 4.74200181627 0.0
1.22311665376 4.69253757572 0.0
1.12360679775 4.6527864045 0.0
1.01876661384 4.62369588909 0.0
0.910300678826 4.60595948777 0.0
0.799999999999 4.6 0.0
0.689699321173 4.60595948777 0.0
0.581233386162 4.62369588909 0.0
0.476393202249 4.6527864045 0.0
0.376883346239 4.69253757572 0.0
0.284281330842 4.74200181627 0.0
1.31178900187 4.9065013622 0.0
1.21733749032 4.86940318179 0.0
1.11770509831 4.83958980337 0.0
1.01407496038 4.81777191682 0.0
0.90772550912 4.80446961582 0.0
0.8 4.8 0.0
0.69227449088 4.80446961582 0.0
0.585925039622 4.81777191682 0.0
0.482294901687 4.83958980338 0.0
0.38266250968 4.86940318179 0.0
0.288210998132 4.9065013622 0.0
1.30785933458 5.07100090813 0.0
1.21155832688 5.04626878786 0.0
1.11180339888 5.02639320225 0.0
1.00938330692 5.01184794454 0.0
0.905150339413 5.00297974388 0.0
0.8 5.0 0.0
0.694849660587 5.00297974388 0.0
0.590616693081 5.01184794455 0.0
0.488196601125 5.02639320225 0.0
0.38844167312 5.04626878786 0.0
0.292140665421 5.07100090813 0.0
1.30392966729 5.23550045407 0.0
1.20577916344 5.22313439393 0.0
1.10590169944 5.21319660113 0.0
1.00469165346 5.20592397227 0.0
0.902575169707 5.20148987194 0.0
0.800000000001 5.2 0.0
0.697424830294 5.20148987194 0.0
0.595308346541 5.20592397227 0.0
0.494098300563 5.21319660113 0.0
0.39422083656 5.22313439393 0.0
0.296070332711 5.23550045407 0.0
CELLS 72 360
4 1 4 36 35
4 35 36 37 34
4 34 37 38 33
4 33 38 39 32
4 32 39 40 31
4 31 40 41 30
4 30 41 42 29
4 29 42 43 28
4 28 43 44 27
4 27 44 45 26
4 26 45 46 25
4 25 46 24 0
4 4 5 47 36
4 36 47 48 37
4 37 48 49 38
4 38 49 50 39
4 39 50 51 40
4 40 51 52 41
4 41 52 53 42
4 42 53 54 43
4 43 54 55 44
4 44 55 56 45
4 45 56 57 46
4 46 57 23 24
4 5 6 58 47
4 47 58 59 48
4 48 59 60 49
4 49 60 61 50
4 50 61 62 51
4 51 62 63 52
4 52 63 64 53
4 53 64 65 54
4 54 65 66 55
4 55 66 67 56
4 56 67 68 57
4 57 68 22 23
4 6 7 69 58
4 58 69 70 59
4 59 70 71 60
4 60 71 72 61
4 61 72 73 62
4 62 73 74 63
4 63 74 75 64
4 64 75 76 65
4 65 76 77 66
4 66 77 78 67
4 67 78 79 68
4 68 79 21 22
4 7 8 80 69
4 69 80 81 70
4 70 81 82 71
4 71 82 83 72
4 72 83 84 73
4 73 84 85 74
4 74 85 86 75
4 75 86 87 76
4 76 87 88 77
4 77 88 89 78
4 78 89 90 79
4 79 90 20 21
4 8 2 9 80
4 80 9 10 81
4 81 10 11 82
4 82 11 12 83
4 83 12 13 84
4 84 13 14 85
4 85 14 15 86
4 86 15 16 87
4 87 16 17 88
4 88 17 18 89
4 89 18 19 90
4 90 19 3 20
CELL_TYPES 72
9 
9 
9 
9 
9 
9 
9 
9 
9 
9 
9 
9 
9 
9 
9 
9 
9 
9 
9 
9 
9 
9 
9 
9 
9 
9 
9 
9 
9 
9 
9 
9 
9 
9 
9 
9 
9 
9 
9 
9 
9 
9 
9 
9 
9 
9 
9 
9 
9 
9 
9 
9 
9 
9 
9 
9 
9 
9 
9 
9 
9 
9 
9 
9 
9 
9 
9 
9 
9 
9 
9 
9 
POINT_DATA 91
VECTORS Displacement float
-0.0115046428575 -0.589706535529 0
-0.00533329742208 -0.596055081781 0
0.0 -0.6 0
0.0 -0.6 0
-0.00235803193925 -0.596044520321 0
-0.000641182288086 -0.596445847536 0
0.000420312176297 -0.597126431028 0
0.00101413598291 -0.597932741413 0
0.00108508916561 -0.598778523721 0
0.0 -0.6 0
0.0 -0.6 0
0.0 -0.6 0
0.0 -0.6 0
0.0 -0.6 0
0.0 -0.6 0
0.0 -0.6 0
0.0 -0.6 0
0.0 -0.6 0
0.0 -0.6 0
0.0 -0.6 0
-0.00391387707281 -0.596216206014 0
-0.00624817015447 -0.593787561713 0
-0.00833267582612 -0.591902849053 0
-0.010084917417 -0.590556795385 0
-0.0113017108042 -0.589823494308 0
-0.0113687898127 -0.589556969932 0
-0.0109883973045 -0.589469655428 0
-0.00986435264331 -0.584730339903 0
-0.00958457211583 -0.580943721987 0
-0.0102351308159 -0.578529021282 0
-0.0111843923936 -0.578006482473 0
-0.0119946236023 -0.579441151531 0
-0.0123364939563 -0.582088976075 0
-0.0116080508435 -0.586071770771 0
-0.0096186830439 -0.591083280862 0
-0.00738189446559 -0.594249842553 0
-0.00361697119044 -0.59438547659 0
-0.00487045110502 -0.591836033 0
-0.00626484180384 -0.588525705966 0
-0.00766339414776 -0.585298827876 0
-0.00870854893965 -0.583050348512 0
-0.00946591038731 -0.582050412082 0
-0.0101778246548 -0.582432900125 0
-0.0109621169968 -0.584179015121 0
-0.0116815644944 -0.586851810839 0
-0.0117804734859 -0.588874530326 0
-0.0115210587857 -0.589723869626 0
-0.00139893369259 -0.595163900661 0
-0.00233028489901 -0.593340969069 0
-0.00343159968618 -0.591159449825 0
-0.004710617741 -0.588993857258 0
-0.00609429876058 -0.587352999861 0
-0.00744876114773 -0.586602118624 0
-0.00868527658489 -0.586827849228 0
-0.00968845680892 -0.587861927343 0
-0.0102663577277 -0.589162652195 0
-0.0104519255213 -0.59015942187 0
-0.0103798328721 -0.590629191043 0
-0.000101102639408 -0.596256583656 0
-0.000781980320551 -0.595085490663 0
-0.00166910741452 -0.593736578001 0
-0.00275112627552 -0.592431070008 0
-0.00397289117873 -0.591421566277 0
-0.00523344949712 -0.590904120354 0
-0.006397058542 -0.59092584887 0
-0.00733268981409 -0.591334261884 0
-0.00797966035394 -0.591859625303 0
-0.00833304472647 -0.592235299171 0
-0.00842353748747 -0.592277121417 0
0.000658892360859 -0.597471399955 0
0.000150170299769 -0.596862629736 0
-0.000502206930608 -0.596146562626 0
-0.00129493718338 -0.595455461065 0
-0.0021895879747 -0.594913848564 0
-0.00311625939113 -0.594603996498 0
-0.00399111253064 -0.59453445206 0
-0.00474356661794 -0.594635375587 0
-0.00533453898497 -0.594774500861 0
-0.00576969041212 -0.594784259398 0
-0.00608742275434 -0.594466466567 0
0.000769845046268 -0.598803375591 0
0.000459692016862 -0.598565587851 0
9.68939840435e-05 -0.598280652862 0
-0.000332827372001 -0.598006585848 0
-0.000813549204856 -0.597787504586 0
-0.00131118264969 -0.597648923385 0
-0.00178592001027 -0.597592549278 0
-0.00220527219047 -0.597593764678 0
-0.00255892283079 -0.597602930295 0
-0.00287442848462 -0.597543432185 0
-0.00324919683786 -0.597293267898 0
SCALARS EPSXX float
LOOKUP_TABLE default
-0.000499010684012
-0.000955488460114
0.00274833078214
0.00682292867662
0.00114275366717
0.00360106119352
0.00413651526822
0.00443354077971
0.00368155165883
0.00253089468048
0.00244707362557
0.00267057751914
0.00295730781149
0.00316293847971
0.00322158185872
0.00314075347498
0.00300931712162
0.00301534860535
0.00352455924116
0.0052903947487
0.00892422184017
0.00963639488171
0.00726143348629
0.0050925514984
0.00169906619972
-0.00125222845447
0.00070840726415
0.00243190345053
0.000883227345645
-0.000573560216621
-0.00122852199964
-0.00159518574392
-0.000806389815721
0.00116457090405
0.00157487099065
-1.62604737725e-05
0.00195581619389
0.00391959559497
0.00517405056653
0.00500990315862
0.00487047442673
0.00530673218596
0.0058577376064
0.00629737751626
0.00559992312514
0.0028413440938
0.00117903864064
0.00454947232345
0.00697460204684
0.00983240515193
0.0119551775921
0.013074845388
0.01364251009
0.0136143940011
0.0124045450278
0.00963144437202
0.00664521029488
0.00521703299614
0.00520378609003
0.00747776661041
0.00993754410251
0.0121817428749
0.0137229394328
0.0143012706073
0.0138545972712
0.0124257078567
0.0105306966686
0.0088999679477
0.00769620322973
0.00506292273294
0.00651828576474
0.0081301492293
0.0096295417377
0.0106989962451
0.011112554182
0.0108376649744
0.010111596385
0.00935024142313
0.00898558547937
0.00919782951316
0.00372070724176
0.00410858451624
0.00475947751966
0.00543698351013
0.0059227371179
0.00610005912263
0.00598026284014
0.00570986630782
0.00557025470848
0.0060044999055
0.00755724957967
SCALARS EPSYY float
LOOKUP_TABLE default
-0.00124846655948
-0.00091194621619
-0.0103361302281
-0.0276570685066
-0.00317756029571
-0.00660435915927
-0.0083130026831
-0.00910369024312
-0.00991026861771
-0.0102177069552
-0.010953816508
-0.012340696036
-0.0137052240877
-0.014834042133
-0.0156432105472
-0.0161721504781
-0.0165964956946
-0.0172672482364
-0.0188357235392
-0.0234434528369
-0.0251848546223
-0.0199571998082
-0.0151332045666
-0.00996230349442
-0.00419269027473
0.000265793619768
-0.00307777275434
-0.0136182608345
-0.0221390321376
-0.0255093543444
-0.0260231032242
-0.02454957602
-0.0221960796129
-0.0172548207709
-0.00929444872086
-0.00295199219259
-0.00533282700419
-0.011200022487
-0.0184637837157
-0.0237413306231
-0.0265864769515
-0.0279296559846
-0.0271752928755
-0.0234117863015
-0.0156798833862
-0.00721012041834
-0.00385685171475
-0.00872150498115
-0.0136097096763
-0.0193620965109
-0.0244610988233
-0.0277351790458
-0.0289224812966
-0.0278736053265
-0.0242354767672
-0.0187427782449
-0.0137201059255
-0.0107559481967
-0.0100783791045
-0.0139975513424
-0.018297842382
-0.0222374015367
-0.0250395452685
-0.0261651222928
-0.0254580776796
-0.0232258657752
-0.0203117013951
-0.0176284800226
-0.0156688778979
-0.0105319868248
-0.0134999856124
-0.0164630655505
-0.019165376231
-0.0211752249645
-0.0221908160887
-0.0221867523204
-0.0214713489182
-0.0205756574395
-0.0200400250503
-0.019775605976
-0.0104617354519
-0.0120389518754
-0.0138632910384
-0.0156042765521
-0.0169830405242
-0.0178621340788
-0.0182752410159
-0.0184405711687
-0.0187653987027
-0.0198907814161
-0.022678054414
SCALARS EPSXY float
LOOKUP_TABLE default
0.000567770472949
1.57305060853e-06
-0.0034842780671
0.0105647459466
-0.000765362946306
-0.00126988933558
-0.000664042669174
-0.000175921938105
-0.00181985573042
-0.00311774151042
-0.00221732791785
-0.000912647033364
0.000609587090526
0.00230092127501
0.00405812084685
0.00575905825587
0.00729998997017
0.00863297680132
0.0098098930698
0.010392750626
0.00648161035987
0.00209628566664
0.00223151159613
0.00242410779416
0.00150449626062
0.00147721946514
0.00962821908886
0.0132454571932
0.00909330177744
0.00602647530802
0.00340429380395
0.00181748766864
0.000229642865346
-0.003271250226
-0.00439952088454
-0.00158681111894
-0.00211809756863
-0.0043202724197
-0.00362080046975
-0.000597770836211
0.00184158051518
0.00424514214558
0.00730903653731
0.0105898510775
0.0130871269752
0.00962270079468
0.00319335713476
-0.00218813169578
-0.00339773415296
-0.00310872841762
-0.000980602040886
0.00213485561773
0.00545492873629
0.00876595325905
0.0114146621555
0.0116213096055
0.00880012646559
0.0046941105593
-0.00117179912371
-0.00174167741335
-0.00136306802553
0.00021163831038
0.00277837079828
0.005746932299
0.00838768144611
0.00985976633454
0.00952542892755
0.0074447041961
0.00419534827617
-0.000548995226062
-0.000807547321277
-0.000219629547931
0.00116737727507
0.00315513051464
0.00537858837392
0.00733577660261
0.00853963631492
0.00864844464666
0.00738140396211
0.00430957783994
-0.00182696733001
-0.00145324352339
-0.000433722916076
0.00100187017328
0.00273181793494
0.0045691163325
0.00629227462524
0.00769224739234
0.00859756213428
0.00883570530621
0.00762367744583
SCALARS SIGXX float
LOOKUP_TABLE default
-10721837.0085
-13663642.4252
-20878057.085
-61104341.8144
-3479153.91277
4866188.53034
2215507.23088
1474786.98268
-9691417.09033
-22473788.8992
-26719260.4241
-30954071.9855
-34461169.4541
-37673975.8032
-40852875.0004
-44106766.5148
-47374344.2492
-50429646.7175
-52688389.4991
-56660340.8186
-28888357.3262
2415407.89188
1380786.27379
3990710.27616
-2703485.55141
-11122722.5386
-7301899.57243
-39242029.327
-94092897.0355
-124119500.992
-132968404.86
-129743924.664
-111030977.354
-68635435.6956
-27620443.6916
-13868834.4396
-5464407.08127
-13331717.9944
-34683983.5027
-60811511.8454
-75399604.5849
-77332023.0416
-68391604.5692
-46576369.1664
-17553671.6199
-5443726.63586
-6275567.12792
4393581.8706
5625091.22315
7113163.3383
4382111.07725
226929.034381
315092.146726
4908382.06131
9864212.15504
8006051.88603
1861994.07348
1533591.08474
4549346.16732
8789278.01457
13092828.4255
16944201.4088
19140235.8768
19620293.7021
18495868.5075
14761449.526
9594165.76532
5962378.49818
3183555.65297
1052854.26557
1631689.43657
3777714.9965
6024828.37387
7244942.50587
6609765.1423
3916025.94904
73340.9329604
-3280333.93131
-4391409.51642
-1069080.89221
-11865914.987
-15362568.7758
-17411361.2309
-18810461.1083
-20419702.1745
-22752195.4375
-25852720.7987
-29288752.7977
-32174866.6369
-33115748.8419
-30736651.7836
SCALARS SIGYY float
LOOKUP_TABLE default
-14637176.1883
-13436167.1872
-89234453.3928
-241236205.887
-26049521.4037
-48449401.434
-62823792.6118
-69246989.6335
-80698381.2017
-89075574.4141
-96728759.1823
-109376604.134
-121510275.497
-131694565.429
-139407123.812
-145002058.682
-149799863.326
-156390849.612
-169503927.418
-206772926.387
-207082441.633
-152188704.973
-115614231.918
-74659501.8682
-33483449.6786
-3192207.21747
-27081821.8508
-123091978.501
-214366761.73
-254390134.556
-262501307.985
-249663224.167
-222775902.234
-164862803.113
-84404404.8511
-29205808.6313
-43542046.0918
-92320268.2166
-158173760.177
-211014927.117
-239738344.513
-250966972.151
-240964163.814
-201784243.172
-128724539.576
-57955013.9659
-32584279.1664
-64937220.7753
-101912343.355
-145405990.803
-185865345.105
-212974531.947
-222054741.643
-211834984.123
-181552144.131
-140227765.664
-104531354.908
-81913134.9046
-75288389.5765
-103402989.109
-134415675.512
-162869753.032
-183364381.169
-191785952.843
-186883075.781
-171491013.933
-151533998.665
-132628664.838
-118881292.42
-80418733.8484
-102948613.152
-124703201.005
-144406803.681
-159273716.177
-167375114.696
-168611535.918
-164923621.802
-159620484.353
-156028235.435
-152433331.751
-85958433.7867
-99721213.4402
-114701218.789
-128735104.585
-140085037.493
-147936501.739
-152569353.065
-155456492.827
-159310219.609
-168398976.11
-188693209.617
SCALARS SIGXY float
LOOKUP_TABLE default
2966170.59201
8217.99772454
-18202713.296
55192793.9756
-3998441.57404
-6634209.74103
-3469119.8838
-919058.852405
-9507367.51288
-16287837.4666
-11583858.5769
-4767889.35006
3184630.7396
12020570.5397
21200607.0908
30086716.464
38136917.2987
45100763.653
51249259.5525
54294248.7249
33861503.8195
10951504.513
11657957.5507
12664126.7792
7859853.19186
7717352.5997
50300150.6339
69197479.3974
47505612.9221
31483767.9728
17784856.1152
9494996.18404
1199709.99956
-17089804.211
-22984163.6514
-8289885.96683
-11065455.1767
-22570150.4593
-18915939.4238
-3122899.76251
9620863.05505
22177651.6939
38184178.7585
55323949.2655
68370323.9551
50271321.7273
16682871.8191
-11431330.4349
-17750586.9082
-16240750.8848
-5122902.7833
11153003.2878
28497870.1253
45795464.9049
59632962.2911
60712538.6666
45973994.0202
24523171.528
-6121762.69476
-9098945.03216
-7120997.80609
1105649.83968
14514882.5946
30023367.5257
43819281.2518
51509809.578
49763149.9124
38892939.4972
21917516.4488
-2868084.1507
-4218822.9754
-1147398.00192
6098661.88551
16483166.6886
28099049.5655
38323875.3421
44613130.324
45181571.4268
38562243.7293
22514279.382
-9544520.23315
-7592096.46763
-2265873.65853
5234012.66282
14271679.151
23870171.3855
32872368.0422
40186165.1648
44915748.8469
46159866.5088
39827939.1412
