# vtk DataFile Version 2.0
Generated with Solid Solver
ASCII
DATASET UNSTRUCTURED_GRID
POINTS 91 float 
0.2 4.5 0.0
1.4 4.5 0.0
1.4 5.4 0.0
0.2 5.4 0.0
1.4 4.65 0.0
1.4 4.8 0.0
1.4 4.95 0.0
1.4 5.1 0.0
1.4 5.25 0.0
1.3 5.4 0.0
1.2 5.4 0.0
1.1 5.4 0.0
1.0 5.4 0.0
0.900000000001 5.4 0.0
0.800000000001 5.4 0.0
0.700000000001 5.4 0.0
0.600000000001 5.4 0.0
0.500000000001 5.4 0.0
0.4 5.4 0.0
0.3 5.4 0.0
0.2 5.25 0.0
0.2 5.1 0.0
0.2 4.95 0.0
0.2 4.8 0.0
0.2 4.65 0.0
0.276421996263 4.4130027244 0.0
0.365325019359 4.33880636358 0.0
0.464589803374 4.27917960675 0.0
0.571850079243 4.23554383363 0.0
0.684548981759 4.20893923165 0.0
0.799999999998 4.2 0.0
0.915451018238 4.20893923165 0.0
1.02814992075 4.23554383363 0.0
1.13541019662 4.27917960675 0.0
1.23467498064 4.33880636358 0.0
1.32357800374 4.4130027244 0.0
1.31964833645 4.57750227033 0.0
1.2288958172 4.51567196965 0.0
1.12950849719 4.46598300562 0.0
1.0234582673 4.42961986136 0.0
0.912875848532 4.40744935971 0.0
0.799999999998 4.4 0.0
0.687124151466 4.40744935971 0.0
0.576541732702 4.42961986136 0.0
0.470491502812 4.46598300563 0.0
0.371104182799 4.51567196965 0.0
0.280351663553 4.57750227033 0.0
1.31571866916 4.74200181627 0.0
1.22311665376 4.69253757572 0.0
1.12360679775 4.6527864045 0.0
1.01876661384 4.62369588909 0.0
0.910300678826 4.60595948777 0.0
0.799999999999 4.6 0.0
0.689699321173 4.60595948777 0.0
0.581233386162 4.62369588909 0.0
0.476393202249 4.6527864045 0.0
0.376883346239 4.69253757572 0.0
0.284281330842 4.74200181627 0.0
1.31178900187 4.9065013622 0.0
1.21733749032 4.86940318179 0.0
1.11770509831 4.83958980337 0.0
1.01407496038 4.81777191682 0.0
0.90772550912 4.80446961582 0.0
0.8 4.8 0.0
0.69227449088 4.80446961582 0.0
0.585925039622 4.81777191682 0.0
0.482294901687 4.83958980338 0.0
0.38266250968 4.86940318179 0.0
0.288210998132 4.9065013622 0.0
1.30785933458 5.07100090813 0.0
1.21155832688 5.04626878786 0.0
1.11180339888 5.02639320225 0.0
1.00938330692 5.01184794454 0.0
0.905150339413 5.00297974388 0.0
0.8 5.0 0.0
0.694849660587 5.00297974388 0.0
0.590616693081 5.01184794455 0.0
0.488196601125 5.02639320225 0.0
0.38844167312 5.04626878786 0.0
0.292140665421 5.07100090813 0.0
1.30392966729 5.23550045407 0.0
1.20577916344 5.22313439393 0.0
1.10590169944 5.21319660113 0.0
1.00469165346 5.20592397227 0.0
0.902575169707 5.20148987194 0.0
0.800000000001 5.2 0.0
0.697424830294 5.20148987194 0.0
0.595308346541 5.20592397227 0.0
0.494098300563 5.21319660113 0.0
0.39422083656 5.22313439393 0.0
0.296070332711 5.23550045407 0.0
CELLS 72 360
4 1 4 36 35
4 35 36 37 34
4 34 37 38 33
4 33 38 39 32
4 32 39 40 31
4 31 40 41 30
4 30 41 42 29
4 29 42 43 28
4 28 43 44 27
4 27 44 45 26
4 26 45 46 25
4 25 46 24 0
4 4 5 47 36
4 36 47 48 37
4 37 48 49 38
4 38 49 50 39
4 39 50 51 40
4 40 51 52 41
4 41 52 53 42
4 42 53 54 43
4 43 54 55 44
4 44 55 56 45
4 45 56 57 46
4 46 57 23 24
4 5 6 58 47
4 47 58 59 48
4 48 59 60 49
4 49 60 61 50
4 50 61 62 51
4 51 62 63 52
4 52 63 64 53
4 53 64 65 54
4 54 65 66 55
4 55 66 67 56
4 56 67 68 57
4 57 68 22 23
4 6 7 69 58
4 58 69 70 59
4 59 70 71 60
4 60 71 72 61
4 61 72 73 62
4 62 73 74 63
4 63 74 75 64
4 64 75 76 65
4 65 76 77 66
4 66 77 78 67
4 67 78 79 68
4 68 79 21 22
4 7 8 80 69
4 69 80 81 70
4 70 81 82 71
4 71 82 83 72
4 72 83 84 73
4 73 84 85 74
4 74 85 86 75
4 75 86 87 76
4 76 87 88 77
4 77 88 89 78
4 78 89 90 79
4 79 90 20 21
4 8 2 9 80
4 80 9 10 81
4 81 10 11 82
4 82 11 12 83
4 83 12 13 84
4 84 13 14 85
4 85 14 15 86
4 86 15 16 87
4 87 16 17 88
4 88 17 18 89
4 89 18 19 90
4 90 19 3 20
CELL_TYPES 72
9 
9 
9 
9 
9 
9 
9 
9 
9 
9 
9 
9 
9 
9 
9 
9 
9 
9 
9 
9 
9 
9 
9 
9 
9 
9 
9 
9 
9 
9 
9 
9 
9 
9 
9 
9 
9 
9 
9 
9 
9 
9 
9 
9 
9 
9 
9 
9 
9 
9 
9 
9 
9 
9 
9 
9 
9 
9 
9 
9 
9 
9 
9 
9 
9 
9 
9 
9 
9 
9 
9 
9 
POINT_DATA 91
VECTORS Displacement float
-5.92877516173e-16 -0.1 0
-6.22460679959e-16 -0.1 0
0.0 -0.1 0
0.0 -0.1 0
-5.01947020706e-16 -0.1 0
-3.70078675487e-16 -0.1 0
-2.8258893064e-16 -0.1 0
-2.05711985696e-16 -0.1 0
-1.20564141828e-16 -0.1 0
0.0 -0.1 0
0.0 -0.1 0
0.0 -0.1 0
0.0 -0.1 0
0.0 -0.1 0
0.0 -0.1 0
0.0 -0.1 0
0.0 -0.1 0
0.0 -0.1 0
0.0 -0.1 0
0.0 -0.1 0
-1.62356282609e-16 -0.1 0
-3.14949350724e-16 -0.1 0
-4.27975346071e-16 -0.1 0
-4.99787160468e-16 -0.1 0
-5.62049623939e-16 -0.1 0
-6.06539781813e-16 -0.1 0
-6.28431939448e-16 -0.1 0
-6.71821798104e-16 -0.1 0
-7.00448068756e-16 -0.1 0
-7.52539427563e-16 -0.1 0
-7.81486752984e-16 -0.1 0
-7.74245328176e-16 -0.1 0
-7.66650462625e-16 -0.1 0
-7.54810207205e-16 -0.1 0
-7.22878108881e-16 -0.1 0
-6.78900182074e-16 -0.1 0
-5.65013656928e-16 -0.1 0
-6.06044435035e-16 -0.1 0
-6.46579068924e-16 -0.1 0
-6.60164194045e-16 -0.1 0
-6.66913416049e-16 -0.1 0
-6.5751592145e-16 -0.1 0
-6.43110320068e-16 -0.1 0
-6.28309476767e-16 -0.1 0
-5.98958869767e-16 -0.1 0
-5.89248751362e-16 -0.1 0
-5.78279260735e-16 -0.1 0
-4.23856823275e-16 -0.1 0
-4.81875792274e-16 -0.1 0
-5.05423402235e-16 -0.1 0
-5.25103216863e-16 -0.1 0
-5.22220196176e-16 -0.1 0
-5.1767703786e-16 -0.1 0
-5.0635411431e-16 -0.1 0
-5.06573364026e-16 -0.1 0
-5.09790563798e-16 -0.1 0
-5.17756737321e-16 -0.1 0
-5.11920015403e-16 -0.1 0
-2.95677572916e-16 -0.1 0
-3.13844574423e-16 -0.1 0
-3.41667263935e-16 -0.1 0
-3.53595776458e-16 -0.1 0
-3.65435174248e-16 -0.1 0
-3.7089395954e-16 -0.1 0
-3.93450629044e-16 -0.1 0
-4.11553082132e-16 -0.1 0
-4.30095643167e-16 -0.1 0
-4.47332648568e-16 -0.1 0
-4.51491170273e-16 -0.1 0
-2.05554574188e-16 -0.1 0
-1.99073114745e-16 -0.1 0
-1.97759470734e-16 -0.1 0
-2.06779234889e-16 -0.1 0
-2.22250897055e-16 -0.1 0
-2.32907773969e-16 -0.1 0
-2.53597425997e-16 -0.1 0
-2.80652419955e-16 -0.1 0
-2.91031659797e-16 -0.1 0
-2.81864248499e-16 -0.1 0
-2.99003482929e-16 -0.1 0
-1.03263139438e-16 -0.1 0
-9.17681174473e-17 -0.1 0
-7.86513532106e-17 -0.1 0
-7.33010384644e-17 -0.1 0
-8.40182825272e-17 -0.1 0
-1.00057385051e-16 -0.1 0
-1.08859409146e-16 -0.1 0
-1.15505717063e-16 -0.1 0
-1.30321782506e-16 -0.1 0
-1.50589965266e-16 -0.1 0
-1.65738100061e-16 -0.1 0
SCALARS EPSXX float
LOOKUP_TABLE default
6.40063019471e-19
5.46174593319e-18
-1.89412468012e-16
8.05407519838e-17
1.75218290512e-17
3.28646098044e-18
-1.08159117634e-16
-2.52652328383e-16
-2.4988547545e-16
-1.53852133003e-16
-1.21142608485e-16
-8.5681869623e-17
3.14005349063e-18
8.03900159346e-17
8.23016512019e-17
6.1983712831e-17
9.4427833646e-17
1.5691634816e-16
1.82149725963e-16
1.3085056298e-16
2.24695164562e-16
3.87458763458e-16
2.31850154154e-16
1.2793310907e-16
1.04869855282e-16
-2.40176930461e-17
-8.91543993723e-17
-1.49959668303e-16
-2.17748572011e-16
-2.28729336408e-16
-1.31921919108e-16
-7.00325457958e-17
-9.59694359002e-17
-4.90818836834e-17
-6.01445071867e-18
-2.57504545306e-17
1.88538496156e-17
1.58056528387e-17
-4.97384339239e-17
-1.07944728487e-16
-1.07001631345e-16
-1.25844081523e-16
-1.23334588445e-16
-7.67560515199e-17
1.77863774997e-19
6.9382199641e-17
9.00204253368e-17
2.77786062804e-17
-8.49366489671e-19
-6.60895087884e-17
-1.07403784686e-16
-1.09439763457e-16
-4.36572175282e-17
7.25140711106e-17
1.57627632973e-16
2.35454742893e-16
2.60093179795e-16
1.72246082194e-16
-9.47040376174e-17
-7.66377389947e-17
-6.6488115559e-17
-4.08389180816e-17
-3.3553638825e-18
1.08610404466e-16
2.5078866016e-16
3.07807777267e-16
3.30356351377e-16
3.62659338912e-16
3.1229251603e-16
-2.36984042594e-16
-1.80775940733e-16
-9.64292520213e-17
1.7668515387e-17
9.92608052688e-17
1.82916562584e-16
2.94723772479e-16
3.26599100107e-16
3.00706804079e-16
3.75746217926e-16
4.33650355901e-16
-2.21876204551e-16
-1.83952168001e-16
-1.1406926919e-16
1.23482697234e-17
1.05717497289e-16
1.31754579687e-16
1.55235934371e-16
1.90649842964e-16
2.08646970986e-16
2.51020062983e-16
2.6053889483e-16
SCALARS EPSYY float
LOOKUP_TABLE default
-3.5714177864e-17
7.14283557277e-17
6.24130450937e-16
-2.26956527613e-16
2.07567896877e-16
2.31287338423e-16
4.1107287533e-16
5.15405433988e-16
4.95007389702e-16
3.46442683361e-16
6.89576908677e-16
5.10575722542e-16
6.67987578981e-17
-8.69112638125e-17
-1.5086789246e-16
1.95550343577e-16
-1.33597515796e-16
-6.73031634258e-16
-5.41810428245e-16
-2.13195497452e-16
-3.78535062713e-16
-7.88267134338e-16
-5.6917782738e-16
-6.6082096692e-17
-5.18919742193e-17
-1.54665566887e-17
7.64281727583e-17
6.67225374306e-17
1.21905444161e-16
3.85769043754e-16
5.49950605445e-16
3.27903687189e-16
1.42223018187e-16
-3.55853532962e-16
-5.85949324476e-16
-3.09331133772e-17
0.0
-3.55135710389e-16
-2.45930379535e-16
-5.13557485549e-17
1.07596457595e-16
2.88793186578e-16
2.15192915191e-16
6.16268982661e-17
-5.58932680763e-17
-1.64884436967e-16
-1.74361996166e-16
1.4726803076e-16
3.15059368662e-16
1.46472978272e-16
-1.35777627666e-16
-9.99488788187e-18
1.97033867359e-17
9.99488788189e-18
-5.2222164487e-17
-3.60548869594e-16
-4.2848074138e-16
-1.61994833835e-16
2.57687458578e-16
6.26118018959e-17
-1.13570631574e-16
-1.69978612689e-16
-1.02177979165e-16
-2.42105793922e-16
-4.3936531041e-16
-5.09935838068e-16
-6.58709663129e-16
-5.25939135927e-16
-3.86531187867e-16
3.48185916631e-16
-2.73753824256e-16
-5.03730508513e-16
-4.21556944098e-16
-4.70289492846e-16
-5.27104310136e-16
-6.79307045222e-16
-7.7825897372e-16
-6.64008397587e-16
-6.22167782402e-16
-7.79936453257e-16
3.9322363343e-16
3.83325588457e-16
8.07888188626e-17
-2.31025912196e-16
-3.63624532123e-16
-3.49650839384e-16
-1.49727748521e-16
-3.85043186993e-16
-6.11686771388e-16
-5.9353639503e-16
-5.01699118514e-16
SCALARS EPSXY float
LOOKUP_TABLE default
9.28568624463e-16
3.07141929629e-15
8.5108697855e-16
7.94347846644e-16
9.16758211208e-16
-3.13889959289e-16
7.5890376984e-16
-1.1824007015e-15
-1.19384135163e-15
7.72833678266e-16
6.64949161938e-16
6.96239621648e-16
6.23455073716e-16
-2.60733791437e-16
-4.31051121315e-17
9.12568270028e-16
7.5705258951e-16
8.81903520752e-16
1.20675959018e-15
1.0126786129e-15
3.78535062713e-16
4.5476950058e-16
-6.324198082e-17
-6.27779918574e-16
4.15135793754e-16
9.27993401323e-16
3.31188748619e-16
-5.56021145255e-16
0.0
2.5074987844e-16
-4.93059163502e-16
-4.8221130469e-16
-5.1809813768e-16
-7.00586643018e-16
-1.14642259137e-16
1.59305533893e-15
5.38247901206e-16
1.90251273423e-16
2.29162399112e-16
3.85168114162e-16
-1.956299229e-16
-2.88793186578e-16
4.30385830382e-16
-9.24403473992e-17
-4.80682105456e-16
3.04402037478e-16
5.91314595693e-16
5.89072123039e-17
5.10396177232e-16
6.87296282663e-16
8.66887930483e-16
1.39928430346e-16
-2.65995720934e-16
2.89851748575e-16
1.25333194769e-16
5.6335760874e-17
7.43540110042e-16
3.82896879975e-16
2.36213503696e-16
6.26118018959e-17
1.3060622631e-16
2.4434425574e-16
2.96316139578e-16
-5.04387070671e-17
1.53266968748e-16
8.07398410274e-16
8.63136799962e-16
7.13774541615e-16
4.2947909763e-16
-1.10723121489e-15
-1.8665033472e-16
2.11795781989e-16
-4.97221010987e-16
-1.67214041901e-16
4.23750523835e-16
4.49387737608e-16
8.43113888197e-16
1.11049680286e-15
3.48413958145e-16
-1.39274366653e-17
-6.37293474869e-16
3.46229563768e-16
5.30897952525e-16
-2.31025912196e-16
-5.13352280644e-16
2.22505079608e-16
7.27249064244e-16
6.27070333102e-16
9.46383306675e-16
8.40843226293e-16
3.25426455252e-16
SCALARS SIGXX float
LOOKUP_TABLE default
-1.5953231452e-07
3.8559351246e-07
1.02919413025e-06
-2.59156925823e-07
1.1368034342e-06
1.10647628618e-06
8.41612685836e-07
-9.97517490568e-08
-1.67172254454e-07
9.058558076e-08
2.00680038888e-06
1.52548691259e-06
3.41184227823e-07
3.89693749666e-07
1.11557852058e-07
1.51974713612e-06
3.11418858801e-07
-1.57695217771e-06
-7.18587628903e-07
3.01204040057e-07
4.59464746818e-07
1.62916202908e-07
-3.55231069786e-07
9.55575516175e-07
7.93882697026e-07
-3.08830066548e-07
-5.24861878155e-07
-1.16995983919e-06
-1.58264486957e-06
-4.65681057235e-07
1.25203742258e-06
8.31627542602e-07
-2.86576552369e-07
-2.13684302141e-06
-2.78036518681e-06
-3.9775212831e-07
1.86050041931e-07
-1.49319853343e-06
-1.63286391111e-06
-1.30368437258e-06
-5.56240225024e-07
9.92583461302e-08
-2.1776075146e-07
-4.71248544465e-07
-2.57800377707e-07
-8.10210934588e-08
7.86255806901e-08
9.57998677813e-07
1.4546820133e-06
2.80148123782e-08
-1.69038220955e-06
-1.12636703066e-06
-3.39311993757e-07
7.61983801272e-07
1.31296382982e-06
6.4916417349e-07
5.76836541521e-07
9.47459740297e-07
2.62100839803e-07
-4.65507367916e-07
-1.18350163012e-06
-1.19234075331e-06
-5.0760191694e-07
-5.25149413056e-08
4.34473969968e-07
6.6942601263e-07
2.01064064748e-07
1.13638631049e-06
1.28674441641e-06
-7.21666046523e-07
-3.05514950005e-06
-3.29077430695e-06
-1.7832607825e-06
-1.20440976583e-06
-6.42728629355e-07
-2.46208230268e-07
-3.91172168218e-07
-1.16124176961e-07
8.1866400676e-07
6.5742123482e-07
-3.63436852096e-07
-3.51662032893e-08
-7.50472306959e-07
-9.50978549479e-07
-6.45367386021e-07
-3.23542476535e-07
8.36568908059e-07
9.32828156816e-08
-7.81602197082e-07
-2.79177762406e-07
2.41225483882e-07
SCALARS SIGYY float
LOOKUP_TABLE default
-3.49455682045e-07
7.30219073932e-07
5.27933956136e-06
-1.86559725923e-06
2.12965016429e-06
2.29760814288e-06
3.5542064915e-06
3.91276819739e-06
3.72432865319e-06
2.70424698503e-06
6.2421956846e-06
4.64048112135e-06
6.73752732061e-07
-4.84328693618e-07
-1.10657636998e-06
2.21753159493e-06
-8.79840845555e-07
-5.91280163738e-06
-4.50073097997e-06
-1.49617598475e-06
-2.6919561981e-06
-5.97936091164e-06
-4.53999543392e-06
-5.80069527138e-08
-2.50791031555e-08
-2.64156857214e-07
3.40181619885e-07
-3.79594674132e-08
1.91790051275e-07
2.74460745004e-06
4.81430479328e-06
2.9105428931e-06
9.57798571406e-07
-3.73949248613e-06
-5.8100855576e-06
-4.24827594527e-07
8.75529609087e-08
-3.43108614011e-06
-2.65781819666e-06
-1.00804982288e-06
5.6487221538e-07
2.26542395281e-06
1.55078899481e-06
2.516975326e-07
-5.507295635e-07
-1.30488679501e-06
-1.30257228195e-06
1.58224039843e-06
3.10506582967e-06
1.13849277508e-06
-1.83861404378e-06
-6.06842892809e-07
-8.3008369344e-09
4.35368431919e-07
2.16657615211e-07
-2.46450318386e-06
-3.02044054971e-06
-7.98695833141e-07
2.10307944417e-06
2.61965991161e-07
-1.42947210773e-06
-1.86699782454e-06
-1.02387521617e-06
-1.8847413838e-06
-3.17105768234e-06
-3.60266487475e-06
-4.96605656861e-06
-3.50586753988e-06
-2.36408002455e-06
2.33540367985e-06
-3.54088850367e-06
-5.41861481057e-06
-4.07788106175e-06
-4.17987859598e-06
-4.35204979472e-06
-5.33478135062e-06
-6.16321859027e-06
-5.15603026082e-06
-4.3946806495e-06
-5.68265045908e-06
2.84999381663e-06
2.92843031833e-06
2.67513583352e-07
-2.22242427563e-06
-3.09732392756e-06
-2.83852109011e-06
-7.56635301956e-07
-2.91427713476e-06
-5.06722453603e-06
-4.69134544003e-06
-3.7408906828e-06
SCALARS SIGXY float
LOOKUP_TABLE default
4.85106760174e-06
1.60458389903e-05
4.44628470006e-06
4.14986572004e-06
4.78936713977e-06
-1.63983724186e-06
3.96469727032e-06
-6.17714790724e-06
-6.23691663702e-06
4.03747048888e-06
3.47385562176e-06
3.63732456885e-06
3.25708044572e-06
-1.36213653466e-06
-2.25191555499e-07
4.7674778713e-06
3.9550262555e-06
4.6072777872e-06
6.30440464689e-06
5.29047857162e-06
1.97755893369e-06
2.37582611818e-06
-3.30391439193e-07
-3.2796744837e-06
2.16877002555e-06
4.84806249661e-06
1.73021031097e-06
-2.90478925582e-06
0.0
1.30997815282e-06
-2.57586059963e-06
-2.51918875541e-06
-2.70667027079e-06
-3.66003446231e-06
-5.98918953793e-07
8.32250728579e-06
2.81193752024e-06
9.93918773882e-07
1.19719992748e-06
2.01221160247e-06
-1.02201814266e-06
-1.50872561715e-06
2.24843991387e-06
-4.82930784595e-07
-2.5111998479e-06
1.59027003822e-06
3.0891707969e-06
3.07745557612e-07
2.66643336227e-06
3.59060239791e-06
4.52883270349e-06
7.31020042172e-07
-1.38962612997e-06
1.51425580165e-06
6.54770993277e-07
2.9431167196e-07
3.88443378701e-06
2.00034612447e-06
1.23403660719e-06
3.27099231723e-07
6.82318588358e-07
1.27651362696e-06
1.54802734737e-06
-2.63504033284e-07
8.00703800367e-07
4.21804502822e-06
4.50923588828e-06
3.72893124165e-06
2.24370292216e-06
-5.78444428625e-06
-9.75106597143e-07
1.10647250954e-06
-2.59760309982e-06
-8.73566691627e-07
2.21377546391e-06
2.34771048375e-06
4.40463134319e-06
5.8015045095e-06
1.82019898134e-06
-7.27603054878e-08
-3.32937560811e-06
1.80878717556e-06
2.77353960653e-06
-1.20693537159e-06
-2.68187676312e-06
1.1624204765e-06
3.79932541442e-06
3.27596743718e-06
4.94413582033e-06
4.39276885494e-06
1.7001066935e-06
