# vtk DataFile Version 2.0
Generated with Solid Solver
ASCII
DATASET UNSTRUCTURED_GRID
POINTS 91 float 
0.2 4.5 0.0
1.4 4.5 0.0
1.4 5.4 0.0
0.2 5.4 0.0
1.4 4.65 0.0
1.4 4.8 0.0
1.4 4.95 0.0
1.4 5.1 0.0
1.4 5.25 0.0
1.3 5.4 0.0
1.2 5.4 0.0
1.1 5.4 0.0
1.0 5.4 0.0
0.900000000001 5.4 0.0
0.800000000001 5.4 0.0
0.700000000001 5.4 0.0
0.600000000001 5.4 0.0
0.500000000001 5.4 0.0
0.4 5.4 0.0
0.3 5.4 0.0
0.2 5.25 0.0
0.2 5.1 0.0
0.2 4.95 0.0
0.2 4.8 0.0
0.2 4.65 0.0
0.276421996263 4.4130027244 0.0
0.365325019359 4.33880636358 0.0
0.464589803374 4.27917960675 0.0
0.571850079243 4.23554383363 0.0
0.684548981759 4.20893923165 0.0
0.799999999998 4.2 0.0
0.915451018238 4.20893923165 0.0
1.02814992075 4.23554383363 0.0
1.13541019662 4.27917960675 0.0
1.23467498064 4.33880636358 0.0
1.32357800374 4.4130027244 0.0
1.31964833645 4.57750227033 0.0
1.2288958172 4.51567196965 0.0
1.12950849719 4.46598300562 0.0
1.0234582673 4.42961986136 0.0
0.912875848532 4.40744935971 0.0
0.799999999998 4.4 0.0
0.687124151466 4.40744935971 0.0
0.576541732702 4.42961986136 0.0
0.470491502812 4.46598300563 0.0
0.371104182799 4.51567196965 0.0
0.280351663553 4.57750227033 0.0
1.31571866916 4.74200181627 0.0
1.22311665376 4.69253757572 0.0
1.12360679775 4.6527864045 0.0
1.01876661384 4.62369588909 0.0
0.910300678826 4.60595948777 0.0
0.799999999999 4.6 0.0
0.689699321173 4.60595948777 0.0
0.581233386162 4.62369588909 0.0
0.476393202249 4.6527864045 0.0
0.376883346239 4.69253757572 0.0
0.284281330842 4.74200181627 0.0
1.31178900187 4.9065013622 0.0
1.21733749032 4.86940318179 0.0
1.11770509831 4.83958980337 0.0
1.01407496038 4.81777191682 0.0
0.90772550912 4.80446961582 0.0
0.8 4.8 0.0
0.69227449088 4.80446961582 0.0
0.585925039622 4.81777191682 0.0
0.482294901687 4.83958980338 0.0
0.38266250968 4.86940318179 0.0
0.288210998132 4.9065013622 0.0
1.30785933458 5.07100090813 0.0
1.21155832688 5.04626878786 0.0
1.11180339888 5.02639320225 0.0
1.00938330692 5.01184794454 0.0
0.905150339413 5.00297974388 0.0
0.8 5.0 0.0
0.694849660587 5.00297974388 0.0
0.590616693081 5.01184794455 0.0
0.488196601125 5.02639320225 0.0
0.38844167312 5.04626878786 0.0
0.292140665421 5.07100090813 0.0
1.30392966729 5.23550045407 0.0
1.20577916344 5.22313439393 0.0
1.10590169944 5.21319660113 0.0
1.00469165346 5.20592397227 0.0
0.902575169707 5.20148987194 0.0
0.800000000001 5.2 0.0
0.697424830294 5.20148987194 0.0
0.595308346541 5.20592397227 0.0
0.494098300563 5.21319660113 0.0
0.39422083656 5.22313439393 0.0
0.296070332711 5.23550045407 0.0
CELLS 72 360
4 1 4 36 35
4 35 36 37 34
4 34 37 38 33
4 33 38 39 32
4 32 39 40 31
4 31 40 41 30
4 30 41 42 29
4 29 42 43 28
4 28 43 44 27
4 27 44 45 26
4 26 45 46 25
4 25 46 24 0
4 4 5 47 36
4 36 47 48 37
4 37 48 49 38
4 38 49 50 39
4 39 50 51 40
4 40 51 52 41
4 41 52 53 42
4 42 53 54 43
4 43 54 55 44
4 44 55 56 45
4 45 56 57 46
4 46 57 23 24
4 5 6 58 47
4 47 58 59 48
4 48 59 60 49
4 49 60 61 50
4 50 61 62 51
4 51 62 63 52
4 52 63 64 53
4 53 64 65 54
4 54 65 66 55
4 55 66 67 56
4 56 67 68 57
4 57 68 22 23
4 6 7 69 58
4 58 69 70 59
4 59 70 71 60
4 60 71 72 61
4 61 72 73 62
4 62 73 74 63
4 63 74 75 64
4 64 75 76 65
4 65 76 77 66
4 66 77 78 67
4 67 78 79 68
4 68 79 21 22
4 7 8 80 69
4 69 80 81 70
4 70 81 82 71
4 71 82 83 72
4 72 83 84 73
4 73 84 85 74
4 74 85 86 75
4 75 86 87 76
4 76 87 88 77
4 77 88 89 78
4 78 89 90 79
4 79 90 20 21
4 8 2 9 80
4 80 9 10 81
4 81 10 11 82
4 82 11 12 83
4 83 12 13 84
4 84 13 14 85
4 85 14 15 86
4 86 15 16 87
4 87 16 17 88
4 88 17 18 89
4 89 18 19 90
4 90 19 3 20
CELL_TYPES 72
9 
9 
9 
9 
9 
9 
9 
9 
9 
9 
9 
9 
9 
9 
9 
9 
9 
9 
9 
9 
9 
9 
9 
9 
9 
9 
9 
9 
9 
9 
9 
9 
9 
9 
9 
9 
9 
9 
9 
9 
9 
9 
9 
9 
9 
9 
9 
9 
9 
9 
9 
9 
9 
9 
9 
9 
9 
9 
9 
9 
9 
9 
9 
9 
9 
9 
9 
9 
9 
9 
9 
9 
POINT_DATA 91
VECTORS Displacement float
-0.0204308844943 -0.781522069243 0
-0.0123367138694 -0.794179355604 0
0.0 -0.8 0
0.0 -0.8 0
-0.0066563754595 -0.794320950283 0
-0.00321796788149 -0.795134333248 0
-0.000880485516009 -0.796238169249 0
0.000644957544452 -0.797394075988 0
0.00123564613643 -0.79848692263 0
0.0 -0.8 0
0.0 -0.8 0
0.0 -0.8 0
0.0 -0.8 0
0.0 -0.8 0
0.0 -0.8 0
0.0 -0.8 0
0.0 -0.8 0
0.0 -0.8 0
0.0 -0.8 0
0.0 -0.8 0
-0.0067133559962 -0.793477321702 0
-0.0107637136994 -0.789251783641 0
-0.0144292262984 -0.785923140585 0
-0.0175802476303 -0.783437919012 0
-0.0198969749596 -0.781922291869 0
-0.0202855526197 -0.781107967807 0
-0.0196636240295 -0.779071714795 0
-0.0189328635359 -0.774398505641 0
-0.0192132450399 -0.770869663805 0
-0.0203869757918 -0.768811549611 0
-0.0218619059366 -0.768376616241 0
-0.0228776838973 -0.77002610701 0
-0.0231785455359 -0.773505272988 0
-0.0225258674084 -0.77801161841 0
-0.0202890442912 -0.783491209323 0
-0.0162343611284 -0.790395627567 0
-0.00916415389022 -0.791081502836 0
-0.0118433708157 -0.786531677346 0
-0.0144888586607 -0.781668725207 0
-0.0163883570152 -0.777752124954 0
-0.0175804654831 -0.774969547962 0
-0.0183446773068 -0.773546957065 0
-0.0189286277856 -0.773657388489 0
-0.0195158089532 -0.775205666886 0
-0.0201638278383 -0.777799885129 0
-0.0204645345118 -0.780278853009 0
-0.0202994141061 -0.781673613268 0
-0.00475232827435 -0.792714246244 0
-0.00658814850404 -0.789537112314 0
-0.00863683057443 -0.78606192384 0
-0.0107376659136 -0.78296445594 0
-0.0126562308592 -0.780755185464 0
-0.0143443309752 -0.779616706163 0
-0.0158148401319 -0.779579802868 0
-0.0170300281415 -0.780487458521 0
-0.0178409456692 -0.781862142955 0
-0.0181786947329 -0.783061695445 0
-0.0180846540382 -0.783641456459 0
-0.00189155847321 -0.794553691781 0
-0.0031539620458 -0.792478377379 0
-0.00469896143465 -0.790242924689 0
-0.00644771892961 -0.788188100342 0
-0.00828070467799 -0.786635142366 0
-0.0100563252918 -0.785767686548 0
-0.0116554852697 -0.785584305897 0
-0.0129661847709 -0.785906557827 0
-0.013909151077 -0.786417497018 0
-0.0144482012452 -0.786755746482 0
-0.014587387286 -0.786640113812 0
1.42153558256e-05 -0.796413625675 0
-0.000857406163369 -0.795267927833 0
-0.00194008498319 -0.794024408987 0
-0.00320621892554 -0.792869294441 0
-0.00458232280852 -0.791964795188 0
-0.00596955845763 -0.791405083228 0
-0.00726292141172 -0.791185910132 0
-0.00838000872245 -0.791200714886 0
-0.00927695677038 -0.79126126166 0
-0.00996195785706 -0.791122040079 0
-0.0104863479663 -0.790469121648 0
0.000784666291213 -0.798325133345 0
0.000292634053406 -0.797850537298 0
-0.000294265291693 -0.797335600146 0
-0.000979419074165 -0.796856825379 0
-0.00173103070676 -0.796472310838 0
-0.00249674964637 -0.796213602087 0
-0.00322123245953 -0.796077888515 0
-0.00386300106642 -0.79602531524 0
-0.00441461490299 -0.795979158242 0
-0.00492727545235 -0.795819356501 0
-0.00556449124146 -0.795346917981 0
SCALARS EPSXX float
LOOKUP_TABLE default
5.72326597113e-05
-0.000525535018107
0.00373145850134
0.0117604605438
0.00302703372971
0.00659985433058
0.00656856857636
0.00639182542694
0.00505935215977
0.00360924377749
0.00373573751344
0.00414839299782
0.0045759147228
0.00485897060764
0.00493721829763
0.00484805407939
0.00473771372644
0.00490165640391
0.00592997796195
0.00908023447767
0.0154221029141
0.0167707529839
0.0129657635157
0.0098096578781
0.00409781632204
0.000561017364173
0.0019395678355
0.00145596441337
-0.00122239421417
-0.00331658214705
-0.00377682197951
-0.00359056925034
-0.00354305628088
-0.00205442729001
0.00158485117857
0.00200904703871
0.00513468950856
0.00653623602128
0.0053446156224
0.00440588266474
0.00440722866088
0.00463729236839
0.00525425234848
0.00649294308706
0.00723949389832
0.00611688930305
0.00446192162856
0.00847733900248
0.0120395359093
0.0144012284085
0.0153376093549
0.0159429539851
0.0165568363591
0.0169140093331
0.0165507907906
0.0149030117929
0.0123489866108
0.0103346180265
0.00837305912433
0.0119341223641
0.0151712042022
0.0175040091234
0.0188572910685
0.0194602081582
0.0193444713093
0.018413620396
0.0168525154577
0.0151527295915
0.0135644583116
0.00755490894071
0.00999994771935
0.0123942309687
0.0143836585089
0.0156874048171
0.0162283483721
0.0161060167456
0.0155730233397
0.0150523359047
0.0150741806079
0.0158578770463
0.00535513314786
0.00623845959224
0.00730797564924
0.00829177611024
0.00895744036153
0.00921681899308
0.00913538784542
0.00893927909417
0.00903291812328
0.0100889662141
0.0129823172613
SCALARS EPSYY float
LOOKUP_TABLE default
-0.00422811218744
-0.00431861776919
-0.0136434832208
-0.0476202382885
-0.00774136202487
-0.0120474771558
-0.0131025609052
-0.0130999772146
-0.0133795349058
-0.0142162982207
-0.0163794528197
-0.0191028098626
-0.021604060168
-0.0236593669413
-0.0252088875079
-0.0263605535682
-0.027416731454
-0.0289485344531
-0.0320211344297
-0.0402463835367
-0.0434754440907
-0.0347737562793
-0.0270459107919
-0.0192497965799
-0.00967473396502
-0.00601319935623
-0.0132255461402
-0.0232005286602
-0.0296060737336
-0.0323542304247
-0.0335647536476
-0.0327246781729
-0.0302391527846
-0.0275781032234
-0.0218523243859
-0.0111506509754
-0.0133340853295
-0.0230379166606
-0.0296233317232
-0.0332286736816
-0.035758369621
-0.0367528700707
-0.0357617253611
-0.0326692140701
-0.0263407964579
-0.0177693955336
-0.0114772870641
-0.0159571228444
-0.0238512616231
-0.0310429726429
-0.0360169077376
-0.0389434089833
-0.040158417742
-0.0394144368134
-0.0363134047629
-0.0310775047839
-0.0252418860707
-0.0207289784853
-0.0161840219252
-0.0226149920259
-0.0289319695351
-0.0340151880678
-0.0373241747268
-0.0387975391821
-0.0384860264331
-0.0365574975369
-0.0335803183837
-0.0303745125905
-0.0277167044097
-0.0156939057125
-0.0208294777127
-0.0256469714825
-0.0297826450351
-0.032788905166
-0.0344813116411
-0.0349713124175
-0.0346442709417
-0.03411117141
-0.0340558240105
-0.0342088390634
-0.0148391113016
-0.0181403929415
-0.0214783425614
-0.024481650631
-0.0268513266248
-0.028482804752
-0.0294931022622
-0.0302376497897
-0.031336456254
-0.0337887987473
-0.0389880661702
SCALARS EPSXY float
LOOKUP_TABLE default
0.00187943572139
-0.000723144207576
-0.00435025790952
0.0180196044927
-0.00136344682153
-0.00151047040135
-0.000484191977753
0.000219537100389
-0.00205412455742
-0.00369935360591
-0.00215630151295
-3.93726136697e-05
0.00237600022587
0.00500227239671
0.0076910029678
0.0102807515563
0.0126451800357
0.0147412840525
0.016676069359
0.0176924454448
0.0110169446747
0.0034326890235
0.00350149424184
0.00388873587874
0.00296575746166
0.0054458222305
0.0120465212729
0.0130932504755
0.0101992718474
0.00897616186328
0.00781614710881
0.006110928754
0.00511189308549
0.00391574562973
-0.00121437299109
-0.00358413310496
-0.00308994099653
-0.00160804615683
0.00265299302111
0.00503859872668
0.00677275198668
0.00875359735087
0.0105316300982
0.0123188407553
0.0141708390258
0.0123530018723
0.00640498543811
-0.0020224225993
-0.00158515861577
0.00112578009296
0.0045605048157
0.00755714866614
0.0102801669053
0.0128237414034
0.0147796871317
0.0149238805321
0.0122034609028
0.00712027492862
-0.000663028925462
-0.000319069084557
0.00142851437785
0.00433619846475
0.00765829667431
0.0108065369076
0.0133765572327
0.014754914358
0.0142007428693
0.0113398768401
0.00651801836375
0.000129098461679
0.000536586749894
0.00200954161791
0.00438629512698
0.00728019134695
0.0102029867739
0.0126465265855
0.0141111238257
0.0141048343478
0.0120479851427
0.00705761117059
-0.0017984213578
-0.000811412418394
0.00100065953272
0.00332264467756
0.00596605372306
0.00867886024515
0.0111848316313
0.0132259227127
0.0145697681144
0.0149254019952
0.0129145960813
SCALARS SIGXX float
LOOKUP_TABLE default
-19069612.289
-25240658.7823
-26535129.5703
-105085100.625
-6078303.19753
9181725.85473
3973430.24625
2241324.53497
-12205741.5224
-30401167.8212
-39198120.6211
-47772677.3215
-55169120.923
-61920295.7192
-68343765.1996
-74571712.4086
-80565200.7808
-86060754.6433
-90181714.4597
-97291114.366
-49704489.122
4012653.82034
2351311.60755
7410188.10148
-4489942.78766
-22387794.1454
-42276726.6809
-93370466.7525
-149546430.492
-182973715.685
-193136761.24
-187397698.636
-175386629.187
-148339513.358
-85837858.4475
-31955766.8828
-11251254.124
-42483145.2093
-84823231.1332
-110829043.191
-122563089.636
-124911050.263
-114220231.768
-87635900.4912
-50881204.571
-22155458.4193
-9267590.60522
9553270.44261
8046504.41844
-2044941.58033
-15902537.5568
-23518990.3374
-23103413.295
-16123948.4831
-5307711.11094
2746304.25792
4642426.56669
5721519.81528
7470567.81921
12747235.093
15356205.0266
14771052.376
12759080.4049
11866707.1724
12171208.2724
11941205.5682
10361539.3555
8475057.64976
5144227.9389
1673038.26536
1952293.31496
3207774.59397
3634351.26429
2539353.64642
18243.7496239
-3464377.80521
-7205258.17781
-9867816.63017
-9395232.15345
-2372272.01621
-16064909.3518
-22678628.1887
-27625303.1244
-31863821.9743
-36299270.9405
-41315929.997
-46811083.9822
-52203796.0296
-56382370.4707
-57349390.748
-52941971.153
SCALARS SIGYY float
LOOKUP_TABLE default
-41457292.642
-45056642.6092
-117306037.234
-415304266.646
-62335013.1396
-88236454.3951
-98793318.9242
-99588577.7499
-108534957.586
-123526120.563
-144284751.331
-169242597.72
-191939656.413
-210907004.612
-225834330.075
-237613044.483
-248547817.42
-262902357.787
-288447525.863
-354985324.841
-357399552.868
-265268358.209
-206679374.775
-144403446.703
-76441084.2873
-56733096.0423
-121502958.481
-222181963.901
-297829653.194
-334673429.717
-348756137.591
-339601346.462
-314853509.103
-281681383.992
-208279345.336
-100705219.538
-107736611.157
-196985688.311
-267504265.145
-307441089.073
-332397912.176
-341143292.824
-328497642.59
-292228503.336
-226312782.068
-146943201.02
-92537880.866
-118098281.751
-179455722.69
-239456464.649
-284190984.428
-310258656.269
-319397649.872
-310397406.534
-281483084.245
-237467061.131
-191741405.26
-156562238.931
-120821576.815
-167745714.023
-215049466.256
-254377723.253
-280746516.659
-292485888.024
-289949331.449
-275241240.845
-253111810.773
-229370292.416
-210518573.672
-119784405.559
-159108098.942
-195528689.121
-227101125.432
-250712641.538
-264901313.41
-270304727.736
-269552577.393
-266709897.268
-266062286.584
-263932934.359
-121564537.93
-150039663.85
-178012007.958
-203080148.344
-223372950.59
-238267903.744
-248615680.787
-256873569.956
-267281768.733
-286577471.94
-324447853.08
SCALARS SIGXY float
LOOKUP_TABLE default
9818627.82935
-3777880.64806
-22726801.9273
94138782.2589
-7122976.72825
-7891063.55128
-2529536.27165
1146915.03355
-10731244.6576
-19326320.0503
-11265041.8434
-205692.078687
12412801.18
26133083.6725
40179663.9893
53709138.4337
66061486.0047
77012041.5351
87119829.0148
92429624.0816
57555189.7549
17933199.6258
18292654.7664
20315698.9544
15493835.9512
28450295.5315
62933947.4983
68402314.6055
53283468.6817
46893645.613
40833447.3199
31924973.2482
26705768.7254
20456804.4414
-6344178.8989
-18724380.221
-16142600.8425
-8400822.95267
13859878.6921
26322861.2266
35382498.2577
45730914.6452
55019788.7555
64356610.4915
74031898.4257
64535076.4481
33461196.6524
-10565625.943
-8281252.88968
5881348.12202
23825182.7341
39480376.668
53706084.0749
66994333.8771
77212668.5304
77965969.8102
63753838.1712
37198042.3544
-3463823.8409
-1666894.24781
7462905.41641
22653351.9795
40008798.3834
56455968.5718
69882377.7852
77083249.555
74188123.3536
59242265.674
34051708.0579
674441.660407
2803259.26308
10498332.5736
22915069.0876
38033484.4913
53302876.3582
66068520.7074
73719931.7441
73687073.9868
62941595.1093
36870671.6912
-9395389.1541
-4239015.17973
5227687.98308
17358301.2852
31168110.9653
45340469.8868
58432271.916
69095426.5356
76116000.6944
77973918.3025
67468980.7399
