# vtk DataFile Version 2.0
Generated with Solid Solver
ASCII
DATASET UNSTRUCTURED_GRID
POINTS 91 float 
0.2 4.5 0.0
1.4 4.5 0.0
1.4 5.4 0.0
0.2 5.4 0.0
1.4 4.65 0.0
1.4 4.8 0.0
1.4 4.95 0.0
1.4 5.1 0.0
1.4 5.25 0.0
1.3 5.4 0.0
1.2 5.4 0.0
1.1 5.4 0.0
1.0 5.4 0.0
0.900000000001 5.4 0.0
0.800000000001 5.4 0.0
0.700000000001 5.4 0.0
0.600000000001 5.4 0.0
0.500000000001 5.4 0.0
0.4 5.4 0.0
0.3 5.4 0.0
0.2 5.25 0.0
0.2 5.1 0.0
0.2 4.95 0.0
0.2 4.8 0.0
0.2 4.65 0.0
0.276421996263 4.4130027244 0.0
0.365325019359 4.33880636358 0.0
0.464589803374 4.27917960675 0.0
0.571850079243 4.23554383363 0.0
0.684548981759 4.20893923165 0.0
0.799999999998 4.2 0.0
0.915451018238 4.20893923165 0.0
1.02814992075 4.23554383363 0.0
1.13541019662 4.27917960675 0.0
1.23467498064 4.33880636358 0.0
1.32357800374 4.4130027244 0.0
1.31964833645 4.57750227033 0.0
1.2288958172 4.51567196965 0.0
1.12950849719 4.46598300562 0.0
1.0234582673 4.42961986136 0.0
0.912875848532 4.40744935971 0.0
0.799999999998 4.4 0.0
0.687124151466 4.40744935971 0.0
0.576541732702 4.42961986136 0.0
0.470491502812 4.46598300563 0.0
0.371104182799 4.51567196965 0.0
0.280351663553 4.57750227033 0.0
1.31571866916 4.74200181627 0.0
1.22311665376 4.69253757572 0.0
1.12360679775 4.6527864045 0.0
1.01876661384 4.62369588909 0.0
0.910300678826 4.60595948777 0.0
0.799999999999 4.6 0.0
0.689699321173 4.60595948777 0.0
0.581233386162 4.62369588909 0.0
0.476393202249 4.6527864045 0.0
0.376883346239 4.69253757572 0.0
0.284281330842 4.74200181627 0.0
1.31178900187 4.9065013622 0.0
1.21733749032 4.86940318179 0.0
1.11770509831 4.83958980337 0.0
1.01407496038 4.81777191682 0.0
0.90772550912 4.80446961582 0.0
0.8 4.8 0.0
0.69227449088 4.80446961582 0.0
0.585925039622 4.81777191682 0.0
0.482294901687 4.83958980338 0.0
0.38266250968 4.86940318179 0.0
0.288210998132 4.9065013622 0.0
1.30785933458 5.07100090813 0.0
1.21155832688 5.04626878786 0.0
1.11180339888 5.02639320225 0.0
1.00938330692 5.01184794454 0.0
0.905150339413 5.00297974388 0.0
0.8 5.0 0.0
0.694849660587 5.00297974388 0.0
0.590616693081 5.01184794455 0.0
0.488196601125 5.02639320225 0.0
0.38844167312 5.04626878786 0.0
0.292140665421 5.07100090813 0.0
1.30392966729 5.23550045407 0.0
1.20577916344 5.22313439393 0.0
1.10590169944 5.21319660113 0.0
1.00469165346 5.20592397227 0.0
0.902575169707 5.20148987194 0.0
0.800000000001 5.2 0.0
0.697424830294 5.20148987194 0.0
0.595308346541 5.20592397227 0.0
0.494098300563 5.21319660113 0.0
0.39422083656 5.22313439393 0.0
0.296070332711 5.23550045407 0.0
CELLS 72 360
4 1 4 36 35
4 35 36 37 34
4 34 37 38 33
4 33 38 39 32
4 32 39 40 31
4 31 40 41 30
4 30 41 42 29
4 29 42 43 28
4 28 43 44 27
4 27 44 45 26
4 26 45 46 25
4 25 46 24 0
4 4 5 47 36
4 36 47 48 37
4 37 48 49 38
4 38 49 50 39
4 39 50 51 40
4 40 51 52 41
4 41 52 53 42
4 42 53 54 43
4 43 54 55 44
4 44 55 56 45
4 45 56 57 46
4 46 57 23 24
4 5 6 58 47
4 47 58 59 48
4 48 59 60 49
4 49 60 61 50
4 50 61 62 51
4 51 62 63 52
4 52 63 64 53
4 53 64 65 54
4 54 65 66 55
4 55 66 67 56
4 56 67 68 57
4 57 68 22 23
4 6 7 69 58
4 58 69 70 59
4 59 70 71 60
4 60 71 72 61
4 61 72 73 62
4 62 73 74 63
4 63 74 75 64
4 64 75 76 65
4 65 76 77 66
4 66 77 78 67
4 67 78 79 68
4 68 79 21 22
4 7 8 80 69
4 69 80 81 70
4 70 81 82 71
4 71 82 83 72
4 72 83 84 73
4 73 84 85 74
4 74 85 86 75
4 75 86 87 76
4 76 87 88 77
4 77 88 89 78
4 78 89 90 79
4 79 90 20 21
4 8 2 9 80
4 80 9 10 81
4 81 10 11 82
4 82 11 12 83
4 83 12 13 84
4 84 13 14 85
4 85 14 15 86
4 86 15 16 87
4 87 16 17 88
4 88 17 18 89
4 89 18 19 90
4 90 19 3 20
CELL_TYPES 72
9 
9 
9 
9 
9 
9 
9 
9 
9 
9 
9 
9 
9 
9 
9 
9 
9 
9 
9 
9 
9 
9 
9 
9 
9 
9 
9 
9 
9 
9 
9 
9 
9 
9 
9 
9 
9 
9 
9 
9 
9 
9 
9 
9 
9 
9 
9 
9 
9 
9 
9 
9 
9 
9 
9 
9 
9 
9 
9 
9 
9 
9 
9 
9 
9 
9 
9 
9 
9 
9 
9 
9 
POINT_DATA 91
VECTORS Displacement float
-0.00115674553919 -0.298412970192 0
0.000230608614852 -0.299068860831 0
0.0 -0.3 0
0.0 -0.3 0
0.000511293870738 -0.299057627658 0
0.000629789451476 -0.299104574935 0
0.000633308102543 -0.29922185097 0
0.000551868606391 -0.299397571911 0
0.000389178516931 -0.299626614588 0
0.0 -0.3 0
0.0 -0.3 0
0.0 -0.3 0
0.0 -0.3 0
0.0 -0.3 0
0.0 -0.3 0
0.0 -0.3 0
0.0 -0.3 0
0.0 -0.3 0
0.0 -0.3 0
0.0 -0.3 0
-0.000537230849955 -0.299453372341 0
-0.000811400272896 -0.299086828236 0
-0.00103431055972 -0.298786625967 0
-0.00120006650209 -0.298562766317 0
-0.0012701029344 -0.298436176987 0
-0.00104511910856 -0.298303136748 0
-0.000891589981405 -0.298082084169 0
-0.000718671877632 -0.297697376674 0
-0.000616138119212 -0.297207248326 0
-0.00061845229105 -0.294890733283 0
-0.000861481941305 -0.294101418182 0
-0.000974183367022 -0.295144621021 0
-0.000731213681409 -0.297404932145 0
-0.000449232912614 -0.298425014906 0
-0.000204565082537 -0.298666962749 0
3.02038697348e-05 -0.298911069221 0
0.000401858815856 -0.298905415832 0
0.000303916405246 -0.298656332973 0
0.000257608565857 -0.298231266647 0
0.00022696018852 -0.297467486014 0
-8.09280514179e-06 -0.296493537095 0
-0.000508037767174 -0.29592693516 0
-0.00100961842814 -0.296299697625 0
-0.00119730916291 -0.297092403635 0
-0.00117767148897 -0.297755000607 0
-0.00120009221121 -0.298122578625 0
-0.00123560584606 -0.298337569406 0
0.000578147806993 -0.298986808178 0
0.000510217947853 -0.298764652378 0
0.000421817545054 -0.298425005976 0
0.000270714555368 -0.297991740514 0
1.35913408914e-05 -0.297574439206 0
-0.000342745532808 -0.297355991114 0
-0.000693321690607 -0.297427693827 0
-0.000950311747378 -0.297716483734 0
-0.00109872947564 -0.298060614294 0
-0.00116404454041 -0.29833805005 0
-0.00119664001719 -0.29850161397 0
0.000595636226673 -0.299159185431 0
0.000529865667856 -0.299021529089 0
0.000422495726906 -0.298822064614 0
0.000262094022353 -0.298594724124 0
4.35734072868e-05 -0.298398022287 0
-0.000213464369357 -0.298289970229 0
-0.00047358523844 -0.298299822944 0
-0.000696048005814 -0.298410040055 0
-0.00085729453563 -0.298563599543 0
-0.000960030705711 -0.298699416437 0
-0.00101280745941 -0.298779168848 0
0.000513603160576 -0.29939955039 0
0.000446648464426 -0.299349759226 0
0.000352290459776 -0.299256355183 0
0.000225290243255 -0.299149728045 0
6.79651989157e-05 -0.299058430769 0
-0.000109177326523 -0.299005600769 0
-0.000288136816681 -0.299001301515 0
-0.000450790360541 -0.299038049479 0
-0.000585033472814 -0.299094112309 0
-0.000687466188754 -0.299139035972 0
-0.000764098567123 -0.299138459686 0
0.000318439492809 -0.299706635397 0
0.000267130464094 -0.29969603169 0
0.000211492611168 -0.29966353662 0
0.000142392034529 -0.299625060605 0
5.92963209591e-05 -0.299591998736 0
-3.2866882122e-05 -0.299571757467 0
-0.000126581129802 -0.299567124727 0
-0.000214254371204 -0.299575882 0
-0.000291255913629 -0.299590609003 0
-0.000359272353813 -0.299599132951 0
-0.000430708044129 -0.299583066689 0
SCALARS EPSXX float
LOOKUP_TABLE default
-6.87864156956e-05
-0.000181187313511
0.000708835002065
0.00103653566479
7.43167557666e-05
0.000484390762646
0.000749674295906
0.000997147058823
0.00092158215153
0.000586471595327
0.000470831957274
0.000480581179868
0.000534040486886
0.000586881317337
0.000615834432688
0.000613855275967
0.000589884839424
0.000572643938738
0.000618559141662
0.000836640477709
0.00136904011709
0.00152209581926
0.00120492279509
0.000882171684833
0.000314365657118
-6.95322392287e-05
-0.000158652609053
-0.000551305790355
-0.000205267051173
0.000947100273391
0.00171348075224
0.00167900436604
0.000622183648843
-0.000351811728321
-0.000324863236696
-0.000151527864176
7.85844876443e-05
-1.60246177826e-05
0.000130185405177
0.00128644497027
0.00284129251835
0.00340315185771
0.0025218778381
0.000951884777196
0.000206530363776
0.000280691215783
0.000302418004401
0.000535490913958
0.000688222056442
0.00112709314328
0.00221301423305
0.0036804840584
0.00444699072603
0.00381442406662
0.00246273956047
0.00150623954213
0.00110719349405
0.000926979777853
0.000878306462598
0.00119694141252
0.00167240142965
0.00231206888136
0.00294011960011
0.00325257720607
0.00309360756457
0.00260570778084
0.00204408377421
0.00160210769029
0.00131092551691
0.00104574401748
0.00121885668495
0.00148715545007
0.00181265001023
0.00209860686171
0.00224792339417
0.0022137037229
0.00202594046266
0.00178456256518
0.00159582790314
0.00151008335932
0.00084096476147
0.000798903172421
0.000876223289428
0.00100447209887
0.00112167401339
0.00118531981629
0.00117882291882
0.00111841392776
0.00105014123732
0.00105008765575
0.00120678814881
SCALARS EPSYY float
LOOKUP_TABLE default
-0.00027053638694
3.92309954643e-05
-0.00284374198572
-0.00410846034867
-0.00027601298229
-0.000925193613811
-0.00153059385008
-0.00204905412958
-0.00258493783203
-0.00254892402143
-0.0023363621714
-0.00242539970737
-0.00258453303806
-0.00273834847827
-0.0028483189487
-0.00290339296416
-0.00291918380453
-0.00294253981399
-0.00306600161576
-0.00358770005272
-0.00380885018625
-0.00315429468424
-0.00249759802451
-0.00171720848789
-0.00077551144086
-0.000327509300568
-0.000450107748882
-0.000241754055507
-0.00243265967681
-0.00780599621079
-0.0107166484261
-0.00791387387527
-0.00257334201318
0.000358105830914
0.000302979853807
-5.1566148168e-06
-0.000361166385687
-0.000377394521808
-0.000821458104336
-0.00337644207185
-0.00748629765366
-0.00963525972766
-0.00758031916175
-0.0035917410793
-0.00148724068618
-0.00112310031101
-0.000869870389163
-0.00110933216594
-0.00159186259645
-0.00253355607293
-0.00422340698441
-0.00621816829007
-0.0072390849826
-0.00651716336506
-0.00478583823971
-0.00324570169109
-0.00234055942662
-0.0018697763761
-0.0017606632568
-0.00233907826875
-0.00311999431311
-0.0040493000048
-0.00489402670442
-0.00532301543277
-0.00516739418304
-0.00455601245909
-0.00378912528811
-0.00311622846802
-0.0026439362121
-0.00221470417794
-0.00260745223695
-0.00306205790024
-0.00355482711414
-0.00397255252353
-0.0042053902695
-0.00420071722884
-0.00399372668718
-0.00369329068977
-0.00342423541231
-0.00320954519307
-0.0024861407286
-0.00250135409465
-0.00268369590655
-0.00292722925141
-0.00314693608411
-0.00328860650528
-0.00333285320179
-0.00330018781813
-0.00325060861407
-0.00328509247523
-0.00353316534044
SCALARS EPSXY float
LOOKUP_TABLE default
0.000111893838279
4.52666660626e-05
-0.00112984842047
0.00146755354267
-0.00010435246272
-0.000268996097327
-0.000252020070848
-0.000209253584681
-0.000679501877155
-0.00110300041778
-0.00100436155042
-0.000804596595846
-0.000554596312224
-0.000257208839643
7.03734260139e-05
0.000404227208016
0.000720227263994
0.00100215899693
0.00125180571105
0.00140744525339
0.000873064146445
0.000259340031632
0.000327934890848
0.000387307039745
0.000254377081273
0.000328869531291
0.000760173342284
0.00140594356411
0.00452849204252
0.0049660460759
0.00041393897515
-0.00391008925719
-0.00429142119849
-0.0015023789934
-0.00014348057573
-3.52051920781e-05
-0.000270683844456
-0.00066563671288
-0.00191284306424
-0.00380237272945
-0.00329757683827
0.000233913512941
0.00387716507876
0.00399605459715
0.00199498077774
0.0011337149179
0.000540506221525
-0.000531394191511
-0.00112717287291
-0.00191011470845
-0.00243873083069
-0.00185080823323
4.83991436909e-05
0.00195418705531
0.00260875697251
0.00217667738482
0.00141970151795
0.000737322638006
-0.000489565513368
-0.000908528721299
-0.00120108122166
-0.0011921928153
-0.000737366269471
7.66788649262e-05
0.00090884817325
0.00141350870046
0.00146341827782
0.00114522544737
0.000630642994429
-0.000436413049997
-0.000740075419807
-0.000818536924993
-0.000681817812722
-0.000348139244808
0.000114157081041
0.000586236644243
0.000936725620259
0.00107400380666
0.000957909951913
0.000557426750164
-0.000785031204717
-0.00086924847515
-0.000766047501916
-0.000553124941284
-0.000254033922138
9.69573391969e-05
0.000452972943034
0.000765222039479
0.000993444529523
0.00110623946903
0.00100115619609
SCALARS SIGXX float
LOOKUP_TABLE default
-1935094.31646
-1605779.0892
-6210893.34228
-8850201.30141
-548382.348059
483587.25587
290068.64785
324522.372004
-2909674.37115
-6049309.96222
-6203354.90376
-6520619.37524
-6732060.96678
-6924910.62752
-7149878.58158
-7425160.04499
-7735029.68292
-8013623.0835
-8133859.58274
-8404478.11664
-4177721.89128
372239.72583
291920.984695
730959.014871
-499133.034854
-2207023.27971
-3655783.4137
-6562943.4469
-13322292.592
-26903260.9181
-32857010.507
-20181780.6491
-5810294.50018
-1808721.38507
-1798785.72303
-1519225.14304
-901701.221384
-1910664.89655
-2529992.02696
-2984767.63177
-6726739.43145
-11161591.757
-10315342.1548
-7286011.41939
-4868360.82232
-2445556.00581
-1055213.98464
132746.960824
-600860.909092
-643084.011632
2225519.19643
7443316.4064
10266311.151
7376573.53999
2078010.11318
-208703.441985
56778.2193863
464635.538786
491022.952189
949290.045648
2014740.58379
4011504.75043
6286400.31403
7377610.74297
6531565.63301
4556080.74243
2575215.9195
1338568.73941
658396.233081
34836.9165319
-80717.0133583
455774.198899
1379451.49553
2261456.39683
2653668.76747
2337689.12146
1446055.42423
459291.066366
-153714.013886
-2870.10372352
-3246416.73392
-3732128.44985
-3815886.12006
-3681238.23633
-3544956.39312
-3574783.75251
-3844366.75231
-4288792.92689
-4732274.28344
-4892938.18302
-4498609.19528
SCALARS SIGYY float
LOOKUP_TABLE default
-2989085.07533
-454260.408375
-24770416.7573
-35728907.7474
-2378589.82809
-6880423.24417
-11622604.9391
-15589571.1092
-21228584.8307
-22429376.7601
-20868817.5639
-21702168.0104
-23024245.0789
-24296717.1961
-25247455.6407
-25800117.5176
-26067254.9623
-26377795.1735
-27382898.2063
-31518305.615
-31228276.082
-24058357.9349
-19050945.3577
-12848833.1602
-6192915.20732
-3554757.98804
-5178415.71996
-4945770.14121
-24958731.6423
-72631558.9143
-97795018.6993
-70297302.128
-22504495.2315
1900060.0456
1481218.78615
-754546.252446
-3199066.38994
-3798548.88
-7501608.42212
-27344819.9367
-60680574.1483
-79277414.706
-63091668.2995
-31023014.3788
-13717031.3985
-9779303.25486
-7179532.74374
-8460207.55355
-12512575.8836
-19767202.9472
-31399905.5881
-44269643.1353
-50784581.3389
-46598143.8304
-35790317.546
-25033996.4301
-17955118.8571
-14146296.6109
-13295594.6122
-17523733.9862
-23021896.5693
-29221828.4609
-34641079.1678
-37423364.1339
-36625910.1636
-32858481.9656
-27898882.3334
-23311163.1907
-20002760.1936
-16998534.868
-20070282.4114
-23310419.1827
-26661550.2088
-29455752.0279
-31060006.2512
-31172800.9416
-30002145.0798
-28158342.3019
-26379741.7589
-24659353.8138
-20628022.3851
-20973472.4754
-22413767.0106
-24221399.2299
-25845210.3571
-26947659.4446
-27414456.546
-27372639.6236
-27200434.1131
-27540970.14
-29261275.3027
SCALARS SIGXY float
LOOKUP_TABLE default
584560.536947
236484.037248
-5902602.05117
7666855.47748
-545162.562814
-1405300.82361
-1316613.94589
-1093191.45452
-3549882.53399
-5762341.57651
-5247028.22098
-4203407.67042
-2897345.58265
-1343721.33196
367647.837721
2111780.92915
3762641.82765
5235521.54759
6539736.50257
7352835.20257
4561098.75294
1354855.19556
1713211.36916
2023385.86824
1328927.53974
1718094.15741
3971329.82454
7344990.01372
23657940.2464
25943828.5905
2162517.55503
-20427254.18
-22419424.6854
-7848792.0746
-749577.310783
-183920.458008
-1414118.02377
-3477447.55456
-9993155.88712
-19864516.926
-17227340.8157
1222020.89791
20255250.2903
20876357.956
10422263.2146
5922801.57108
2823735.53306
-2776132.07929
-5888624.34209
-9978902.29507
-12740521.067
-9669070.89116
252848.859767
10209146.9193
13628778.8503
11371490.3377
7416864.89984
3851952.20582
-2557608.92438
-4746374.28945
-6274739.47315
-6228304.28357
-3852180.14717
400588.97919
4748043.18389
7384512.11999
7645251.85139
5982935.36749
3294631.88605
-2279927.57029
-3866333.4053
-4276235.32936
-3561981.54283
-1818763.81227
596384.265804
3062642.3475
4893681.72523
5610856.25054
5004353.80939
2912132.47661
-4101193.32404
-4541164.76109
-4002017.85849
-2889658.78416
-1327134.79323
506528.644774
2366440.46603
3997705.44261
5189995.05727
5779263.16547
5230282.67291
