# vtk DataFile Version 2.0
Generated with Solid Solver
ASCII
DATASET UNSTRUCTURED_GRID
POINTS 91 float 
0.2 4.5 0.0
1.4 4.5 0.0
1.4 5.4 0.0
0.2 5.4 0.0
1.4 4.65 0.0
1.4 4.8 0.0
1.4 4.95 0.0
1.4 5.1 0.0
1.4 5.25 0.0
1.3 5.4 0.0
1.2 5.4 0.0
1.1 5.4 0.0
1.0 5.4 0.0
0.900000000001 5.4 0.0
0.800000000001 5.4 0.0
0.700000000001 5.4 0.0
0.600000000001 5.4 0.0
0.500000000001 5.4 0.0
0.4 5.4 0.0
0.3 5.4 0.0
0.2 5.25 0.0
0.2 5.1 0.0
0.2 4.95 0.0
0.2 4.8 0.0
0.2 4.65 0.0
0.276421996263 4.4130027244 0.0
0.365325019359 4.33880636358 0.0
0.464589803374 4.27917960675 0.0
0.571850079243 4.23554383363 0.0
0.684548981759 4.20893923165 0.0
0.799999999998 4.2 0.0
0.915451018238 4.20893923165 0.0
1.02814992075 4.23554383363 0.0
1.13541019662 4.27917960675 0.0
1.23467498064 4.33880636358 0.0
1.32357800374 4.4130027244 0.0
1.31964833645 4.57750227033 0.0
1.2288958172 4.51567196965 0.0
1.12950849719 4.46598300562 0.0
1.0234582673 4.42961986136 0.0
0.912875848532 4.40744935971 0.0
0.799999999998 4.4 0.0
0.687124151466 4.40744935971 0.0
0.576541732702 4.42961986136 0.0
0.470491502812 4.46598300563 0.0
0.371104182799 4.51567196965 0.0
0.280351663553 4.57750227033 0.0
1.31571866916 4.74200181627 0.0
1.22311665376 4.69253757572 0.0
1.12360679775 4.6527864045 0.0
1.01876661384 4.62369588909 0.0
0.910300678826 4.60595948777 0.0
0.799999999999 4.6 0.0
0.689699321173 4.60595948777 0.0
0.581233386162 4.62369588909 0.0
0.476393202249 4.6527864045 0.0
0.376883346239 4.69253757572 0.0
0.284281330842 4.74200181627 0.0
1.31178900187 4.9065013622 0.0
1.21733749032 4.86940318179 0.0
1.11770509831 4.83958980337 0.0
1.01407496038 4.81777191682 0.0
0.90772550912 4.80446961582 0.0
0.8 4.8 0.0
0.69227449088 4.80446961582 0.0
0.585925039622 4.81777191682 0.0
0.482294901687 4.83958980338 0.0
0.38266250968 4.86940318179 0.0
0.288210998132 4.9065013622 0.0
1.30785933458 5.07100090813 0.0
1.21155832688 5.04626878786 0.0
1.11180339888 5.02639320225 0.0
1.00938330692 5.01184794454 0.0
0.905150339413 5.00297974388 0.0
0.8 5.0 0.0
0.694849660587 5.00297974388 0.0
0.590616693081 5.01184794455 0.0
0.488196601125 5.02639320225 0.0
0.38844167312 5.04626878786 0.0
0.292140665421 5.07100090813 0.0
1.30392966729 5.23550045407 0.0
1.20577916344 5.22313439393 0.0
1.10590169944 5.21319660113 0.0
1.00469165346 5.20592397227 0.0
0.902575169707 5.20148987194 0.0
0.800000000001 5.2 0.0
0.697424830294 5.20148987194 0.0
0.595308346541 5.20592397227 0.0
0.494098300563 5.21319660113 0.0
0.39422083656 5.22313439393 0.0
0.296070332711 5.23550045407 0.0
CELLS 72 360
4 1 4 36 35
4 35 36 37 34
4 34 37 38 33
4 33 38 39 32
4 32 39 40 31
4 31 40 41 30
4 30 41 42 29
4 29 42 43 28
4 28 43 44 27
4 27 44 45 26
4 26 45 46 25
4 25 46 24 0
4 4 5 47 36
4 36 47 48 37
4 37 48 49 38
4 38 49 50 39
4 39 50 51 40
4 40 51 52 41
4 41 52 53 42
4 42 53 54 43
4 43 54 55 44
4 44 55 56 45
4 45 56 57 46
4 46 57 23 24
4 5 6 58 47
4 47 58 59 48
4 48 59 60 49
4 49 60 61 50
4 50 61 62 51
4 51 62 63 52
4 52 63 64 53
4 53 64 65 54
4 54 65 66 55
4 55 66 67 56
4 56 67 68 57
4 57 68 22 23
4 6 7 69 58
4 58 69 70 59
4 59 70 71 60
4 60 71 72 61
4 61 72 73 62
4 62 73 74 63
4 63 74 75 64
4 64 75 76 65
4 65 76 77 66
4 66 77 78 67
4 67 78 79 68
4 68 79 21 22
4 7 8 80 69
4 69 80 81 70
4 70 81 82 71
4 71 82 83 72
4 72 83 84 73
4 73 84 85 74
4 74 85 86 75
4 75 86 87 76
4 76 87 88 77
4 77 88 89 78
4 78 89 90 79
4 79 90 20 21
4 8 2 9 80
4 80 9 10 81
4 81 10 11 82
4 82 11 12 83
4 83 12 13 84
4 84 13 14 85
4 85 14 15 86
4 86 15 16 87
4 87 16 17 88
4 88 17 18 89
4 89 18 19 90
4 90 19 3 20
CELL_TYPES 72
9 
9 
9 
9 
9 
9 
9 
9 
9 
9 
9 
9 
9 
9 
9 
9 
9 
9 
9 
9 
9 
9 
9 
9 
9 
9 
9 
9 
9 
9 
9 
9 
9 
9 
9 
9 
9 
9 
9 
9 
9 
9 
9 
9 
9 
9 
9 
9 
9 
9 
9 
9 
9 
9 
9 
9 
9 
9 
9 
9 
9 
9 
9 
9 
9 
9 
9 
9 
9 
9 
9 
9 
POINT_DATA 91
VECTORS Displacement float
-1.18575503235e-15 -0.2 0
-1.24492135992e-15 -0.2 0
0.0 -0.2 0
0.0 -0.2 0
-1.00389404141e-15 -0.2 0
-7.40157350973e-16 -0.2 0
-5.6517786128e-16 -0.2 0
-4.11423971392e-16 -0.2 0
-2.41128283655e-16 -0.2 0
0.0 -0.2 0
0.0 -0.2 0
0.0 -0.2 0
0.0 -0.2 0
0.0 -0.2 0
0.0 -0.2 0
0.0 -0.2 0
0.0 -0.2 0
0.0 -0.2 0
0.0 -0.2 0
0.0 -0.2 0
-3.24712565218e-16 -0.2 0
-6.29898701449e-16 -0.2 0
-8.55950692141e-16 -0.2 0
-9.99574320936e-16 -0.2 0
-1.12409924788e-15 -0.2 0
-1.21307956363e-15 -0.2 0
-1.2568638789e-15 -0.2 0
-1.34364359621e-15 -0.2 0
-1.40089613751e-15 -0.2 0
-1.50507885513e-15 -0.2 0
-1.56297350597e-15 -0.2 0
-1.54849065635e-15 -0.2 0
-1.53330092525e-15 -0.2 0
-1.50962041441e-15 -0.2 0
-1.44575621776e-15 -0.2 0
-1.35780036415e-15 -0.2 0
-1.13002731386e-15 -0.2 0
-1.21208887007e-15 -0.2 0
-1.29315813785e-15 -0.2 0
-1.32032838809e-15 -0.2 0
-1.3338268321e-15 -0.2 0
-1.3150318429e-15 -0.2 0
-1.28622064014e-15 -0.2 0
-1.25661895353e-15 -0.2 0
-1.19791773953e-15 -0.2 0
-1.17849750272e-15 -0.2 0
-1.15655852147e-15 -0.2 0
-8.47713646549e-16 -0.2 0
-9.63751584549e-16 -0.2 0
-1.01084680447e-15 -0.2 0
-1.05020643373e-15 -0.2 0
-1.04444039235e-15 -0.2 0
-1.03535407572e-15 -0.2 0
-1.01270822862e-15 -0.2 0
-1.01314672805e-15 -0.2 0
-1.0195811276e-15 -0.2 0
-1.03551347464e-15 -0.2 0
-1.02384003081e-15 -0.2 0
-5.91355145831e-16 -0.2 0
-6.27689148846e-16 -0.2 0
-6.8333452787e-16 -0.2 0
-7.07191552917e-16 -0.2 0
-7.30870348496e-16 -0.2 0
-7.41787919079e-16 -0.2 0
-7.86901258089e-16 -0.2 0
-8.23106164264e-16 -0.2 0
-8.60191286335e-16 -0.2 0
-8.94665297136e-16 -0.2 0
-9.02982340547e-16 -0.2 0
-4.11109148375e-16 -0.2 0
-3.9814622949e-16 -0.2 0
-3.95518941467e-16 -0.2 0
-4.13558469778e-16 -0.2 0
-4.4450179411e-16 -0.2 0
-4.65815547938e-16 -0.2 0
-5.07194851994e-16 -0.2 0
-5.61304839909e-16 -0.2 0
-5.82063319595e-16 -0.2 0
-5.63728496998e-16 -0.2 0
-5.98006965859e-16 -0.2 0
-2.06526278876e-16 -0.2 0
-1.83536234895e-16 -0.2 0
-1.57302706421e-16 -0.2 0
-1.46602076929e-16 -0.2 0
-1.68036565054e-16 -0.2 0
-2.00114770102e-16 -0.2 0
-2.17718818293e-16 -0.2 0
-2.31011434126e-16 -0.2 0
-2.60643565011e-16 -0.2 0
-3.01179930533e-16 -0.2 0
-3.31476200123e-16 -0.2 0
SCALARS EPSXX float
LOOKUP_TABLE default
1.28012603894e-18
1.09234918664e-17
-3.78824936023e-16
1.61081503968e-16
3.50436581025e-17
6.57292196088e-18
-2.16318235268e-16
-5.05304656767e-16
-4.99770950901e-16
-3.07704266006e-16
-2.4228521697e-16
-1.71363739246e-16
6.28010698127e-18
1.60780031869e-16
1.64603302404e-16
1.23967425662e-16
1.88855667292e-16
3.1383269632e-16
3.64299451925e-16
2.61701125961e-16
4.49390329124e-16
7.74917526916e-16
4.63700308309e-16
2.55866218139e-16
2.09739710564e-16
-4.80353860923e-17
-1.78308798745e-16
-2.99919336606e-16
-4.35497144022e-16
-4.57458672816e-16
-2.63843838216e-16
-1.40065091592e-16
-1.919388718e-16
-9.81637673668e-17
-1.20289014373e-17
-5.15009090611e-17
3.77076992313e-17
3.16113056774e-17
-9.94768678478e-17
-2.15889456975e-16
-2.14003262691e-16
-2.51688163046e-16
-2.4666917689e-16
-1.5351210304e-16
3.55727549993e-19
1.38764399282e-16
1.80040850674e-16
5.55572125608e-17
-1.69873297934e-18
-1.32179017577e-16
-2.14807569372e-16
-2.18879526914e-16
-8.73144350565e-17
1.45028142221e-16
3.15255265946e-16
4.70909485786e-16
5.2018635959e-16
3.44492164388e-16
-1.89408075235e-16
-1.53275477989e-16
-1.32976231118e-16
-8.16778361632e-17
-6.71072776499e-18
2.17220808933e-16
5.01577320321e-16
6.15615554534e-16
6.60712702755e-16
7.25318677825e-16
6.2458503206e-16
-4.73968085188e-16
-3.61551881467e-16
-1.92858504043e-16
3.5337030774e-17
1.98521610538e-16
3.65833125168e-16
5.89447544957e-16
6.53198200214e-16
6.01413608158e-16
7.51492435852e-16
8.67300711801e-16
-4.43752409103e-16
-3.67904336002e-16
-2.2813853838e-16
2.46965394468e-17
2.11434994579e-16
2.63509159375e-16
3.10471868741e-16
3.81299685927e-16
4.17293941971e-16
5.02040125967e-16
5.2107778966e-16
SCALARS EPSYY float
LOOKUP_TABLE default
-7.14283557279e-17
1.42856711455e-16
1.24826090187e-15
-4.53913055225e-16
4.15135793755e-16
4.62574676847e-16
8.2214575066e-16
1.03081086798e-15
9.90014779404e-16
6.92885366721e-16
1.37915381735e-15
1.02115144508e-15
1.33597515796e-16
-1.73822527625e-16
-3.01735784921e-16
3.91100687155e-16
-2.67195031592e-16
-1.34606326852e-15
-1.08362085649e-15
-4.26390994904e-16
-7.57070125426e-16
-1.57653426868e-15
-1.13835565476e-15
-1.32164193384e-16
-1.03783948439e-16
-3.09331133774e-17
1.52856345517e-16
1.33445074861e-16
2.43810888321e-16
7.71538087509e-16
1.09990121089e-15
6.55807374378e-16
2.84446036373e-16
-7.11707065923e-16
-1.17189864895e-15
-6.18662267545e-17
0.0
-7.10271420778e-16
-4.91860759069e-16
-1.0271149711e-16
2.1519291519e-16
5.77586373155e-16
4.30385830382e-16
1.23253796532e-16
-1.11786536153e-16
-3.29768873934e-16
-3.48723992332e-16
2.94536061519e-16
6.30118737324e-16
2.92945956545e-16
-2.71555255332e-16
-1.99897757637e-17
3.94067734717e-17
1.99897757638e-17
-1.04444328974e-16
-7.21097739187e-16
-8.56961482761e-16
-3.23989667671e-16
5.15374917155e-16
1.25223603792e-16
-2.27141263147e-16
-3.39957225378e-16
-2.0435595833e-16
-4.84211587845e-16
-8.7873062082e-16
-1.01987167614e-15
-1.31741932626e-15
-1.05187827185e-15
-7.73062375734e-16
6.96371833262e-16
-5.47507648512e-16
-1.00746101703e-15
-8.43113888196e-16
-9.40578985692e-16
-1.05420862027e-15
-1.35861409044e-15
-1.55651794744e-15
-1.32801679517e-15
-1.2443355648e-15
-1.55987290651e-15
7.8644726686e-16
7.66651176914e-16
1.61577637725e-16
-4.62051824392e-16
-7.27249064246e-16
-6.99301678768e-16
-2.99455497042e-16
-7.70086373985e-16
-1.22337354278e-15
-1.18707279006e-15
-1.00339823703e-15
SCALARS EPSXY float
LOOKUP_TABLE default
1.85713724893e-15
6.14283859259e-15
1.7021739571e-15
1.58869569329e-15
1.83351642242e-15
-6.27779918578e-16
1.51780753968e-15
-2.364801403e-15
-2.38768270327e-15
1.54566735653e-15
1.32989832388e-15
1.3924792433e-15
1.24691014743e-15
-5.21467582875e-16
-8.62102242631e-17
1.82513654006e-15
1.51410517902e-15
1.7638070415e-15
2.41351918036e-15
2.02535722579e-15
7.57070125426e-16
9.09539001159e-16
-1.2648396164e-16
-1.25555983715e-15
8.30271587509e-16
1.85598680265e-15
6.62377497239e-16
-1.11204229051e-15
0.0
5.01499756881e-16
-9.86118327004e-16
-9.6442260938e-16
-1.03619627536e-15
-1.40117328604e-15
-2.29284518273e-16
3.18611067786e-15
1.07649580241e-15
3.80502546846e-16
4.58324798224e-16
7.70336228323e-16
-3.912598458e-16
-5.77586373155e-16
8.60771660764e-16
-1.84880694798e-16
-9.61364210912e-16
6.08804074956e-16
1.18262919139e-15
1.17814424608e-16
1.02079235446e-15
1.37459256533e-15
1.73377586097e-15
2.79856860692e-16
-5.31991441868e-16
5.7970349715e-16
2.50666389538e-16
1.12671521748e-16
1.48708022008e-15
7.65793759949e-16
4.72427007393e-16
1.25223603792e-16
2.6121245262e-16
4.88688511481e-16
5.92632279157e-16
-1.00877414134e-16
3.06533937495e-16
1.61479682055e-15
1.72627359992e-15
1.42754908323e-15
8.5895819526e-16
-2.21446242977e-15
-3.7330066944e-16
4.23591563977e-16
-9.94442021974e-16
-3.34428083802e-16
8.4750104767e-16
8.98775475217e-16
1.68622777639e-15
2.22099360572e-15
6.96827916291e-16
-2.78548733306e-17
-1.27458694974e-15
6.92459127535e-16
1.06179590505e-15
-4.62051824392e-16
-1.02670456129e-15
4.45010159216e-16
1.45449812849e-15
1.2541406662e-15
1.89276661335e-15
1.68168645259e-15
6.50852910505e-16
SCALARS SIGXX float
LOOKUP_TABLE default
-3.1906462904e-07
7.7118702492e-07
2.05838826049e-06
-5.18313851646e-07
2.27360686839e-06
2.21295257236e-06
1.68322537167e-06
-1.99503498114e-07
-3.34344508908e-07
1.8117116152e-07
4.01360077777e-06
3.05097382518e-06
6.82368455646e-07
7.79387499333e-07
2.23115704117e-07
3.03949427224e-06
6.22837717603e-07
-3.15390435543e-06
-1.43717525781e-06
6.02408080114e-07
9.18929493636e-07
3.25832405815e-07
-7.10462139571e-07
1.91115103235e-06
1.58776539405e-06
-6.17660133095e-07
-1.04972375631e-06
-2.33991967837e-06
-3.16528973915e-06
-9.3136211447e-07
2.50407484516e-06
1.6632550852e-06
-5.73153104738e-07
-4.27368604283e-06
-5.56073037363e-06
-7.9550425662e-07
3.72100083862e-07
-2.98639706686e-06
-3.26572782221e-06
-2.60736874517e-06
-1.11248045005e-06
1.9851669226e-07
-4.3552150292e-07
-9.42497088929e-07
-5.15600755414e-07
-1.62042186918e-07
1.5725116138e-07
1.91599735563e-06
2.9093640266e-06
5.60296247564e-08
-3.38076441909e-06
-2.25273406132e-06
-6.78623987513e-07
1.52396760254e-06
2.62592765964e-06
1.29832834698e-06
1.15367308304e-06
1.89491948059e-06
5.24201679606e-07
-9.31014735831e-07
-2.36700326025e-06
-2.38468150663e-06
-1.01520383388e-06
-1.05029882611e-07
8.68947939936e-07
1.33885202526e-06
4.02128129496e-07
2.27277262097e-06
2.57348883283e-06
-1.44333209305e-06
-6.1102990001e-06
-6.58154861391e-06
-3.56652156501e-06
-2.40881953166e-06
-1.28545725871e-06
-4.92416460536e-07
-7.82344336435e-07
-2.32248353923e-07
1.63732801352e-06
1.31484246964e-06
-7.26873704192e-07
-7.03324065786e-08
-1.50094461392e-06
-1.90195709896e-06
-1.29073477204e-06
-6.47084953069e-07
1.67313781612e-06
1.86565631363e-07
-1.56320439416e-06
-5.58355524812e-07
4.82450967763e-07
SCALARS SIGYY float
LOOKUP_TABLE default
-6.98911364089e-07
1.46043814786e-06
1.05586791227e-05
-3.73119451846e-06
4.25930032859e-06
4.59521628576e-06
7.10841298301e-06
7.82553639478e-06
7.44865730638e-06
5.40849397007e-06
1.24843913692e-05
9.28096224271e-06
1.34750546412e-06
-9.68657387237e-07
-2.21315273997e-06
4.43506318985e-06
-1.75968169111e-06
-1.18256032748e-05
-9.00146195995e-06
-2.99235196949e-06
-5.3839123962e-06
-1.19587218233e-05
-9.07999086784e-06
-1.16013905428e-07
-5.01582063109e-08
-5.28313714428e-07
6.80363239769e-07
-7.59189348264e-08
3.83580102549e-07
5.48921490008e-06
9.62860958655e-06
5.82108578621e-06
1.91559714281e-06
-7.47898497225e-06
-1.16201711152e-05
-8.49655189054e-07
1.75105921817e-07
-6.86217228023e-06
-5.31563639332e-06
-2.01609964575e-06
1.12974443076e-06
4.53084790563e-06
3.10157798962e-06
5.03395065199e-07
-1.101459127e-06
-2.60977359002e-06
-2.6051445639e-06
3.16448079685e-06
6.21013165934e-06
2.27698555017e-06
-3.67722808756e-06
-1.21368578562e-06
-1.66016738688e-08
8.70736863839e-07
4.33315230422e-07
-4.92900636773e-06
-6.04088109942e-06
-1.59739166628e-06
4.20615888833e-06
5.23931982323e-07
-2.85894421546e-06
-3.73399564907e-06
-2.04775043235e-06
-3.76948276759e-06
-6.34211536469e-06
-7.20532974951e-06
-9.93211313722e-06
-7.01173507977e-06
-4.72816004911e-06
4.6708073597e-06
-7.08177700733e-06
-1.08372296211e-05
-8.1557621235e-06
-8.35975719196e-06
-8.70409958943e-06
-1.06695627012e-05
-1.23264371805e-05
-1.03120605216e-05
-8.789361299e-06
-1.13653009182e-05
5.69998763326e-06
5.85686063666e-06
5.35027166704e-07
-4.44484855125e-06
-6.19464785511e-06
-5.67704218022e-06
-1.51327060391e-06
-5.82855426951e-06
-1.01344490721e-05
-9.38269088006e-06
-7.4817813656e-06
SCALARS SIGXY float
LOOKUP_TABLE default
9.70213520348e-06
3.20916779807e-05
8.89256940012e-06
8.29973144009e-06
9.57873427953e-06
-3.27967448372e-06
7.92939454063e-06
-1.23542958145e-05
-1.2473833274e-05
8.07494097776e-06
6.94771124352e-06
7.2746491377e-06
6.51416089143e-06
-2.72427306932e-06
-4.50383110999e-07
9.53495574259e-06
7.910052511e-06
9.2145555744e-06
1.26088092938e-05
1.05809571432e-05
3.95511786738e-06
4.75165223636e-06
-6.60782878386e-07
-6.5593489674e-06
4.33754005111e-06
9.69612499322e-06
3.46042062194e-06
-5.80957851164e-06
0.0
2.61995630564e-06
-5.15172119926e-06
-5.03837751082e-06
-5.41334054157e-06
-7.32006892462e-06
-1.19783790759e-06
1.66450145716e-05
5.62387504048e-06
1.98783754776e-06
2.39439985496e-06
4.02442320494e-06
-2.04403628533e-06
-3.0174512343e-06
4.49687982775e-06
-9.65861569189e-07
-5.02239969579e-06
3.18054007644e-06
6.17834159379e-06
6.15491115224e-07
5.33286672454e-06
7.18120479582e-06
9.05766540699e-06
1.46204008434e-06
-2.77925225994e-06
3.02851160329e-06
1.30954198655e-06
5.8862334392e-07
7.76886757402e-06
4.00069224895e-06
2.46807321438e-06
6.54198463445e-07
1.36463717672e-06
2.55302725392e-06
3.09605469475e-06
-5.27008066568e-07
1.60140760073e-06
8.43609005644e-06
9.01847177657e-06
7.4578624833e-06
4.48740584433e-06
-1.15688885725e-05
-1.95021319429e-06
2.21294501908e-06
-5.19520619965e-06
-1.74713338325e-06
4.42755092783e-06
4.6954209675e-06
8.80926268637e-06
1.1603009019e-05
3.64039796268e-06
-1.45520610976e-07
-6.65875121621e-06
3.61757435112e-06
5.54707921305e-06
-2.41387074319e-06
-5.36375352625e-06
2.324840953e-06
7.59865082883e-06
6.55193487435e-06
9.88827164066e-06
8.78553770988e-06
3.400213387e-06
