# vtk DataFile Version 2.0
Generated with Solid Solver
ASCII
DATASET UNSTRUCTURED_GRID
POINTS 91 float 
0.2 4.5 0.0
1.4 4.5 0.0
1.4 5.4 0.0
0.2 5.4 0.0
1.4 4.65 0.0
1.4 4.8 0.0
1.4 4.95 0.0
1.4 5.1 0.0
1.4 5.25 0.0
1.3 5.4 0.0
1.2 5.4 0.0
1.1 5.4 0.0
1.0 5.4 0.0
0.900000000001 5.4 0.0
0.800000000001 5.4 0.0
0.700000000001 5.4 0.0
0.600000000001 5.4 0.0
0.500000000001 5.4 0.0
0.4 5.4 0.0
0.3 5.4 0.0
0.2 5.25 0.0
0.2 5.1 0.0
0.2 4.95 0.0
0.2 4.8 0.0
0.2 4.65 0.0
0.276421996263 4.4130027244 0.0
0.365325019359 4.33880636358 0.0
0.464589803374 4.27917960675 0.0
0.571850079243 4.23554383363 0.0
0.684548981759 4.20893923165 0.0
0.799999999998 4.2 0.0
0.915451018238 4.20893923165 0.0
1.02814992075 4.23554383363 0.0
1.13541019662 4.27917960675 0.0
1.23467498064 4.33880636358 0.0
1.32357800374 4.4130027244 0.0
1.31964833645 4.57750227033 0.0
1.2288958172 4.51567196965 0.0
1.12950849719 4.46598300562 0.0
1.0234582673 4.42961986136 0.0
0.912875848532 4.40744935971 0.0
0.799999999998 4.4 0.0
0.687124151466 4.40744935971 0.0
0.576541732702 4.42961986136 0.0
0.470491502812 4.46598300563 0.0
0.371104182799 4.51567196965 0.0
0.280351663553 4.57750227033 0.0
1.31571866916 4.74200181627 0.0
1.22311665376 4.69253757572 0.0
1.12360679775 4.6527864045 0.0
1.01876661384 4.62369588909 0.0
0.910300678826 4.60595948777 0.0
0.799999999999 4.6 0.0
0.689699321173 4.60595948777 0.0
0.581233386162 4.62369588909 0.0
0.476393202249 4.6527864045 0.0
0.376883346239 4.69253757572 0.0
0.284281330842 4.74200181627 0.0
1.31178900187 4.9065013622 0.0
1.21733749032 4.86940318179 0.0
1.11770509831 4.83958980337 0.0
1.01407496038 4.81777191682 0.0
0.90772550912 4.80446961582 0.0
0.8 4.8 0.0
0.69227449088 4.80446961582 0.0
0.585925039622 4.81777191682 0.0
0.482294901687 4.83958980338 0.0
0.38266250968 4.86940318179 0.0
0.288210998132 4.9065013622 0.0
1.30785933458 5.07100090813 0.0
1.21155832688 5.04626878786 0.0
1.11180339888 5.02639320225 0.0
1.00938330692 5.01184794454 0.0
0.905150339413 5.00297974388 0.0
0.8 5.0 0.0
0.694849660587 5.00297974388 0.0
0.590616693081 5.01184794455 0.0
0.488196601125 5.02639320225 0.0
0.38844167312 5.04626878786 0.0
0.292140665421 5.07100090813 0.0
1.30392966729 5.23550045407 0.0
1.20577916344 5.22313439393 0.0
1.10590169944 5.21319660113 0.0
1.00469165346 5.20592397227 0.0
0.902575169707 5.20148987194 0.0
0.800000000001 5.2 0.0
0.697424830294 5.20148987194 0.0
0.595308346541 5.20592397227 0.0
0.494098300563 5.21319660113 0.0
0.39422083656 5.22313439393 0.0
0.296070332711 5.23550045407 0.0
CELLS 72 360
4 1 4 36 35
4 35 36 37 34
4 34 37 38 33
4 33 38 39 32
4 32 39 40 31
4 31 40 41 30
4 30 41 42 29
4 29 42 43 28
4 28 43 44 27
4 27 44 45 26
4 26 45 46 25
4 25 46 24 0
4 4 5 47 36
4 36 47 48 37
4 37 48 49 38
4 38 49 50 39
4 39 50 51 40
4 40 51 52 41
4 41 52 53 42
4 42 53 54 43
4 43 54 55 44
4 44 55 56 45
4 45 56 57 46
4 46 57 23 24
4 5 6 58 47
4 47 58 59 48
4 48 59 60 49
4 49 60 61 50
4 50 61 62 51
4 51 62 63 52
4 52 63 64 53
4 53 64 65 54
4 54 65 66 55
4 55 66 67 56
4 56 67 68 57
4 57 68 22 23
4 6 7 69 58
4 58 69 70 59
4 59 70 71 60
4 60 71 72 61
4 61 72 73 62
4 62 73 74 63
4 63 74 75 64
4 64 75 76 65
4 65 76 77 66
4 66 77 78 67
4 67 78 79 68
4 68 79 21 22
4 7 8 80 69
4 69 80 81 70
4 70 81 82 71
4 71 82 83 72
4 72 83 84 73
4 73 84 85 74
4 74 85 86 75
4 75 86 87 76
4 76 87 88 77
4 77 88 89 78
4 78 89 90 79
4 79 90 20 21
4 8 2 9 80
4 80 9 10 81
4 81 10 11 82
4 82 11 12 83
4 83 12 13 84
4 84 13 14 85
4 85 14 15 86
4 86 15 16 87
4 87 16 17 88
4 88 17 18 89
4 89 18 19 90
4 90 19 3 20
CELL_TYPES 72
9 
9 
9 
9 
9 
9 
9 
9 
9 
9 
9 
9 
9 
9 
9 
9 
9 
9 
9 
9 
9 
9 
9 
9 
9 
9 
9 
9 
9 
9 
9 
9 
9 
9 
9 
9 
9 
9 
9 
9 
9 
9 
9 
9 
9 
9 
9 
9 
9 
9 
9 
9 
9 
9 
9 
9 
9 
9 
9 
9 
9 
9 
9 
9 
9 
9 
9 
9 
9 
9 
9 
9 
POINT_DATA 91
VECTORS Displacement float
-0.00711045580272 -0.492747176875 0
-0.00237054648267 -0.497293583391 0
0.0 -0.5 0
0.0 -0.5 0
-0.000611410503582 -0.497229328719 0
0.000387755526818 -0.497411404278 0
0.000929002495388 -0.497818923378 0
0.00113172973451 -0.498366246612 0
0.000974812517138 -0.499003335454 0
0.0 -0.5 0
0.0 -0.5 0
0.0 -0.5 0
0.0 -0.5 0
0.0 -0.5 0
0.0 -0.5 0
0.0 -0.5 0
0.0 -0.5 0
0.0 -0.5 0
0.0 -0.5 0
0.0 -0.5 0
-0.00256365977858 -0.497460140471 0
-0.0040297905784 -0.49578836923 0
-0.00532460629824 -0.494451619853 0
-0.00640498709104 -0.493459300708 0
-0.00712428093436 -0.492878871849 0
-0.00691660382405 -0.49249255461 0
-0.00653761205249 -0.491798030074 0
-0.00611583465169 -0.490370615836 0
-0.0057871897796 -0.486475697321 0
-0.00617710234173 -0.483936529362 0
-0.0069006505214 -0.48334117316 0
-0.00752683732339 -0.484568590251 0
-0.00765373583031 -0.486959676654 0
-0.00672529642239 -0.490703923084 0
-0.00489200477549 -0.495030154773 0
-0.00357818897512 -0.496314092794 0
-0.00133227374327 -0.496292714873 0
-0.00195886875634 -0.494758153816 0
-0.00272925387649 -0.492349752583 0
-0.00383349663829 -0.489562473428 0
-0.00481362738201 -0.487549263773 0
-0.00558083504863 -0.486700075563 0
-0.00628800743705 -0.487150237743 0
-0.00693603845082 -0.488806408113 0
-0.00721530457176 -0.490695517034 0
-0.00721380851884 -0.492028009048 0
-0.00718740715429 -0.492682390506 0
-2.93291964809e-05 -0.496654299978 0
-0.000548658093078 -0.495492614124 0
-0.00119225072015 -0.493981532265 0
-0.00203277210393 -0.4923184732 0
-0.00308444043647 -0.490956441566 0
-0.00418369339873 -0.490324982696 0
-0.00517294481244 -0.490523750744 0
-0.00590126382202 -0.491301886055 0
-0.00633601482176 -0.492239965486 0
-0.00652723499535 -0.493000603483 0
-0.00653809801256 -0.493420566172 0
0.000641206843976 -0.497325324376 0
0.000242526097449 -0.496584244341 0
-0.000308876750368 -0.495667210832 0
-0.0010275722373 -0.494724453826 0
-0.00188866717116 -0.49395342105 0
-0.00281752819518 -0.493532234345 0
-0.00368894666163 -0.493516168588 0
-0.00440419156999 -0.493803605338 0
-0.0049121968865 -0.494204623121 0
-0.00521306743888 -0.494521773765 0
-0.00533248829804 -0.494622957956 0
0.000926493340853 -0.498146425731 0
0.000612343711605 -0.497784978744 0
0.000193741986739 -0.497312278233 0
-0.000334806517159 -0.49682859543 0
-0.000953492749162 -0.496430837738 0
-0.00161395497967 -0.496188284591 0
-0.00225558071111 -0.496120445318 0
-0.00282051030504 -0.496187917855 0
-0.00327608275584 -0.496300822102 0
-0.00362141476112 -0.496343399108 0
-0.00388070081385 -0.496179546131 0
0.000751571503297 -0.499108961527 0
0.00055195297071 -0.49897757759 0
0.000319544041446 -0.498794174984 0
3.60329530119e-05 -0.498606271747 0
-0.000291710385546 -0.498449207755 0
-0.000642004169845 -0.498345304839 0
-0.000986246913397 -0.498299934886 0
-0.00129975344076 -0.498299460735 0
-0.00157153122833 -0.498312031077 0
-0.0018166859758 -0.498286207172 0
-0.00209746655197 -0.498141248882 0
SCALARS EPSXX float
LOOKUP_TABLE default
-0.000117587379022
-0.000885866163842
0.00207675390685
0.00467072431392
0.000334988195247
0.00198291261347
0.00265368102075
0.00313270304735
0.00273525853211
0.00183839510054
0.00167943005739
0.00181724721076
0.00203746926089
0.002218956137
0.0023010833582
0.0022781293383
0.00220439834545
0.00220498038468
0.00252779104375
0.00367112265703
0.00614403798944
0.00673896052355
0.00524014879091
0.00386726539899
0.00149697365094
-0.000151436159163
-0.000486791124103
8.90013754579e-05
0.000714971281426
0.000394173740233
2.46992080391e-05
4.74422760612e-05
0.00128999289357
0.00289173778123
0.00144223806004
-0.000884119624756
0.000421369168261
0.00237451829492
0.00477373868351
0.00530613728155
0.00513143901547
0.00523480584698
0.00522151144382
0.00440094921399
0.00264935527772
0.00147545880556
0.00144222262688
0.00244623382314
0.00409142018707
0.00687913375112
0.0094702492023
0.0108426217894
0.0112232044637
0.0106257671884
0.0087919511415
0.0064235558024
0.00476780981057
0.00402129162959
0.00334531322593
0.00489510898574
0.00679487186464
0.00880555004165
0.0103132480273
0.0108269545271
0.0102981482341
0.00906608584696
0.00766719062515
0.00647204682115
0.00556366500274
0.00351017365144
0.00445284807862
0.00560635334822
0.00678233828829
0.00769368137832
0.00809654935238
0.00794010921495
0.00740637689975
0.00680302734529
0.00645423874799
0.00649409665635
0.00267222589883
0.00283394383706
0.00326894188157
0.00378132134286
0.00418840721306
0.00438222035812
0.00434724613805
0.00417284730162
0.00405390253048
0.00429546109274
0.00526710609893
SCALARS EPSYY float
LOOKUP_TABLE default
-0.00143237048022
0.000161828023734
-0.00806156599843
-0.0187472975469
-0.00120006996086
-0.00364576802912
-0.00535371870189
-0.00642128945588
-0.00751118040013
-0.00768257329337
-0.00783620878552
-0.00867430774966
-0.00959526181434
-0.0104034353282
-0.0110086223249
-0.0114129010037
-0.0117167807985
-0.012143827606
-0.0131191730543
-0.0160409050042
-0.0172264021102
-0.0139729998727
-0.0109084889478
-0.00756871527087
-0.00359217360729
-0.00167259954832
-0.00226148479639
-0.00658321477703
-0.0148058433465
-0.0205468514259
-0.0215448628245
-0.0202480084349
-0.0176008865286
-0.0113426960536
-0.003194070602
0.000371352741494
-0.0017018103507
-0.00521456223554
-0.0120974402805
-0.0181622204825
-0.0213490641243
-0.0225411221934
-0.0211963745534
-0.0161104450389
-0.00935342487605
-0.00526512752128
-0.00397865882954
-0.00488109197668
-0.00810356571704
-0.0127777179692
-0.0176761991626
-0.0210465992683
-0.0221270412255
-0.0207687352273
-0.017333797909
-0.0132459227466
-0.0100276509315
-0.00811973526927
-0.00652018471957
-0.00919006717654
-0.012366319766
-0.0155865454048
-0.0180605034264
-0.0190801607297
-0.0185060880937
-0.0168005320336
-0.0146915896152
-0.0127550522508
-0.0113113550721
-0.00734000777851
-0.00930331977523
-0.011367652954
-0.0133723808427
-0.0149543085101
-0.0158196032884
-0.0159012003955
-0.0154053526056
-0.0147144446359
-0.0142264029081
-0.0139124643824
-0.00768884454297
-0.00852230861212
-0.00969135562521
-0.0109058728288
-0.0119253347278
-0.0126141265871
-0.0129601434835
-0.0130895792762
-0.0132705070725
-0.0139327140073
-0.0156441185677
SCALARS EPSXY float
LOOKUP_TABLE default
0.000623857085767
0.000263427684027
-0.00302030299106
0.00691325215304
-0.000392600545407
-0.000954480710397
-0.000651931754141
-0.000363033068736
-0.00170165077629
-0.00283982921849
-0.0023357533688
-0.00150390806587
-0.000495248710878
0.000663304109429
0.00190213324922
0.00313286808285
0.00427636715724
0.00528969589217
0.00620107930005
0.00672509453526
0.00418491259204
0.00129326251586
0.00144937984568
0.00164057702508
0.00115296984474
0.00163611932863
0.00399062521263
0.00893163501623
0.010142791564
0.00622091387964
0.00285162987688
0.000762861509724
-0.00175974787542
-0.00577412849322
-0.00462532656533
-0.00019952132063
-0.0011701627369
-0.00449832799551
-0.00568257353535
-0.00281288350054
0.000228292098299
0.00316380643784
0.00673233727521
0.00984618527827
0.00890079242344
0.00507402827358
0.00240265404264
-0.00185292490293
-0.00353042484478
-0.00435335509315
-0.00307354983469
-0.000112094564329
0.00333479002094
0.00654120767695
0.00832906218154
0.00784681361184
0.00573415225374
0.00309028598587
-0.00121420523706
-0.00205780806145
-0.00227511144212
-0.00144556803143
0.000501462329859
0.00300783418209
0.00518735847942
0.00632845473373
0.00617325836761
0.00486044964847
0.00274357001063
-0.000831867678955
-0.00135199578488
-0.00118640503834
-0.000360272810847
0.00101335299239
0.00265930363066
0.00417036689139
0.00516407644955
0.00538306758781
0.00464536880118
0.00270501453148
-0.0018517933992
-0.00180777634075
-0.00122058754902
-0.000291838474328
0.000892054092414
0.00219965013272
0.00346786173239
0.00453430948459
0.00526691002109
0.00554669317181
0.00487053216152
SCALARS SIGXX float
LOOKUP_TABLE default
-7811954.39985
-7990246.94496
-16942631.2285
-40967387.0622
-2267182.11243
2637296.36965
1325116.16828
1094557.82365
-7888634.0133
-17534803.7897
-19816921.0262
-22348879.2021
-24452424.8636
-26414482.6881
-28414400.0145
-30518288.214
-32657014.8363
-34634378.8644
-35978159.8837
-38263602.3521
-19366017.68
1612741.00317
1053333.73595
3014846.22821
-1909075.63305
-9261543.40846
-15305478.9822
-29692675.3848
-61699600.3767
-91525161.9149
-99805678.0086
-93558954.2449
-69004819.9589
-24137176.1211
-600507.972725
-7000027.25645
-3744741.00116
-783454.601052
-9070425.25677
-31980159.4096
-48503056.4771
-53018675.9353
-46905165.1331
-31384592.0582
-17291290.0374
-9890199.36031
-4244108.35976
1472794.72932
2743085.68124
8546587.79346
11368324.8387
9259549.59373
7997819.47439
8409962.45861
6264903.46592
1876702.67189
482696.390815
1975968.43307
2733350.96738
5628433.55391
9625529.42627
14512938.1812
17902427.5853
18236635.1836
15684229.447
11446433.0622
7435561.90896
4634702.89254
2374978.02896
553125.28455
738277.827677
2534792.72344
4829930.62995
6476966.62093
6434242.37936
4511570.71302
1547296.64682
-1198146.45892
-2373642.9905
-522465.979056
-9335672.48949
-11610254.0074
-12746474.1137
-13330246.5112
-14047265.3082
-15333306.2738
-17285255.5927
-19607295.8455
-21621231.7106
-22312665.9535
-20671830.8884
SCALARS SIGYY float
LOOKUP_TABLE default
-14680700.0558
-2516838.52259
-69907672.1882
-163308810.359
-10286698.0553
-26768295.8359
-40507481.1706
-48817815.1326
-61418514.9805
-67274650.7931
-69528925.1631
-77159305.7227
-85224632.0567
-92356915.676
-97947529.0985
-102043549.758
-105384629.515
-109596030.307
-117721693.535
-141244013.528
-141458862.322
-106591561.188
-83311064.6325
-56729489.1501
-28496014.6427
-17208469.7203
-24576908.9549
-64549950.0723
-142784098.615
-200926153.995
-212490299.051
-199587308.868
-167695353.667
-98501309.2463
-24821708.3768
-441135.258221
-14836745.5184
-40430651.0692
-97209554.1476
-154584549.668
-186843624.395
-198126857.576
-184918605.919
-138541088.095
-79996723.3256
-45104656.4133
-32564107.2411
-36806931.5703
-60966477.042
-94145570.8908
-130451302.377
-157337471.932
-166231948.914
-155602528.949
-130222343.089
-100881421.627
-76812377.3042
-61451699.3658
-48806401.9358
-67955941.306
-90477180.7897
-112917281.666
-130328928.494
-138005385.128
-134796083.975
-123687049.441
-109372126.377
-95812323.7745
-85784217.756
-56130852.8525
-71127277.8694
-86141531.1097
-100463208.103
-111841622.978
-118509536.871
-120041210.403
-117626708.406
-113610636.446
-110414328.491
-107131287.891
-63464416.2521
-70938069.8328
-80454210.1795
-90059709.3959
-98229359.569
-104126343.042
-107703254.706
-109790397.119
-112128147.333
-117541071.628
-129917137.935
SCALARS SIGXY float
LOOKUP_TABLE default
3259180.65413
1376210.08261
-15778795.02
36116505.1874
-2051040.4251
-4986438.62038
-3405849.52769
-1896572.75909
-8889836.17674
-14835956.2808
-12202541.8418
-7856780.31986
-2587299.32592
3465261.46865
9937205.21713
16366862.348
22340778.7245
27634653.6912
32395941.5554
35133524.1782
21862997.9051
6756316.90106
7571911.67864
8570772.09465
6023393.97678
8547484.00778
20847993.5351
46661026.5697
52988401.9888
32499562.2076
14897605.781
3985373.46292
-9193349.50672
-30165447.0373
-24163827.2686
-1042347.74778
-6113213.81337
-23500355.9523
-29687141.7423
-14695185.318
1192653.26506
16528491.8146
35171362.0074
51438858.8477
46499897.3879
26507953.7686
12552047.1803
-9680128.8868
-18443795.2497
-22742982.3654
-16056969.4394
-585609.178493
17421751.5033
34172854.6517
43513040.003
40993656.5661
29956601.4711
16144403.1504
-6343302.5112
-10750488.1756
-11885733.7158
-7551997.83691
2619760.77781
15713654.9392
27100018.2379
33061381.6998
32250598.2599
25392167.2545
14333074.8434
-4345878.41975
-7063153.73676
-6198067.53364
-1882152.50273
5294001.69356
13892846.8462
21787007.6387
26978387.2698
28122450.0648
24268532.7674
14131651.6735
-9674217.63703
-9444261.8529
-6376645.25611
-1524634.93861
4660306.83431
11491505.5419
18116950.3838
23688331.9741
27515614.7769
28977269.7824
25444840.7468
