# vtk DataFile Version 2.0
Generated with Solid Solver
ASCII
DATASET UNSTRUCTURED_GRID
POINTS 91 float 
0.2 4.5 0.0
1.4 4.5 0.0
1.4 5.4 0.0
0.2 5.4 0.0
1.4 4.65 0.0
1.4 4.8 0.0
1.4 4.95 0.0
1.4 5.1 0.0
1.4 5.25 0.0
1.3 5.4 0.0
1.2 5.4 0.0
1.1 5.4 0.0
1.0 5.4 0.0
0.900000000001 5.4 0.0
0.800000000001 5.4 0.0
0.700000000001 5.4 0.0
0.600000000001 5.4 0.0
0.500000000001 5.4 0.0
0.4 5.4 0.0
0.3 5.4 0.0
0.2 5.25 0.0
0.2 5.1 0.0
0.2 4.95 0.0
0.2 4.8 0.0
0.2 4.65 0.0
0.276421996263 4.4130027244 0.0
0.365325019359 4.33880636358 0.0
0.464589803374 4.27917960675 0.0
0.571850079243 4.23554383363 0.0
0.684548981759 4.20893923165 0.0
0.799999999998 4.2 0.0
0.915451018238 4.20893923165 0.0
1.02814992075 4.23554383363 0.0
1.13541019662 4.27917960675 0.0
1.23467498064 4.33880636358 0.0
1.32357800374 4.4130027244 0.0
1.31964833645 4.57750227033 0.0
1.2288958172 4.51567196965 0.0
1.12950849719 4.46598300562 0.0
1.0234582673 4.42961986136 0.0
0.912875848532 4.40744935971 0.0
0.799999999998 4.4 0.0
0.687124151466 4.40744935971 0.0
0.576541732702 4.42961986136 0.0
0.470491502812 4.46598300563 0.0
0.371104182799 4.51567196965 0.0
0.280351663553 4.57750227033 0.0
1.31571866916 4.74200181627 0.0
1.22311665376 4.69253757572 0.0
1.12360679775 4.6527864045 0.0
1.01876661384 4.62369588909 0.0
0.910300678826 4.60595948777 0.0
0.799999999999 4.6 0.0
0.689699321173 4.60595948777 0.0
0.581233386162 4.62369588909 0.0
0.476393202249 4.6527864045 0.0
0.376883346239 4.69253757572 0.0
0.284281330842 4.74200181627 0.0
1.31178900187 4.9065013622 0.0
1.21733749032 4.86940318179 0.0
1.11770509831 4.83958980337 0.0
1.01407496038 4.81777191682 0.0
0.90772550912 4.80446961582 0.0
0.8 4.8 0.0
0.69227449088 4.80446961582 0.0
0.585925039622 4.81777191682 0.0
0.482294901687 4.83958980338 0.0
0.38266250968 4.86940318179 0.0
0.288210998132 4.9065013622 0.0
1.30785933458 5.07100090813 0.0
1.21155832688 5.04626878786 0.0
1.11180339888 5.02639320225 0.0
1.00938330692 5.01184794454 0.0
0.905150339413 5.00297974388 0.0
0.8 5.0 0.0
0.694849660587 5.00297974388 0.0
0.590616693081 5.01184794455 0.0
0.488196601125 5.02639320225 0.0
0.38844167312 5.04626878786 0.0
0.292140665421 5.07100090813 0.0
1.30392966729 5.23550045407 0.0
1.20577916344 5.22313439393 0.0
1.10590169944 5.21319660113 0.0
1.00469165346 5.20592397227 0.0
0.902575169707 5.20148987194 0.0
0.800000000001 5.2 0.0
0.697424830294 5.20148987194 0.0
0.595308346541 5.20592397227 0.0
0.494098300563 5.21319660113 0.0
0.39422083656 5.22313439393 0.0
0.296070332711 5.23550045407 0.0
CELLS 72 360
4 1 4 36 35
4 35 36 37 34
4 34 37 38 33
4 33 38 39 32
4 32 39 40 31
4 31 40 41 30
4 30 41 42 29
4 29 42 43 28
4 28 43 44 27
4 27 44 45 26
4 26 45 46 25
4 25 46 24 0
4 4 5 47 36
4 36 47 48 37
4 37 48 49 38
4 38 49 50 39
4 39 50 51 40
4 40 51 52 41
4 41 52 53 42
4 42 53 54 43
4 43 54 55 44
4 44 55 56 45
4 45 56 57 46
4 46 57 23 24
4 5 6 58 47
4 47 58 59 48
4 48 59 60 49
4 49 60 61 50
4 50 61 62 51
4 51 62 63 52
4 52 63 64 53
4 53 64 65 54
4 54 65 66 55
4 55 66 67 56
4 56 67 68 57
4 57 68 22 23
4 6 7 69 58
4 58 69 70 59
4 59 70 71 60
4 60 71 72 61
4 61 72 73 62
4 62 73 74 63
4 63 74 75 64
4 64 75 76 65
4 65 76 77 66
4 66 77 78 67
4 67 78 79 68
4 68 79 21 22
4 7 8 80 69
4 69 80 81 70
4 70 81 82 71
4 71 82 83 72
4 72 83 84 73
4 73 84 85 74
4 74 85 86 75
4 75 86 87 76
4 76 87 88 77
4 77 88 89 78
4 78 89 90 79
4 79 90 20 21
4 8 2 9 80
4 80 9 10 81
4 81 10 11 82
4 82 11 12 83
4 83 12 13 84
4 84 13 14 85
4 85 14 15 86
4 86 15 16 87
4 87 16 17 88
4 88 17 18 89
4 89 18 19 90
4 90 19 3 20
CELL_TYPES 72
9 
9 
9 
9 
9 
9 
9 
9 
9 
9 
9 
9 
9 
9 
9 
9 
9 
9 
9 
9 
9 
9 
9 
9 
9 
9 
9 
9 
9 
9 
9 
9 
9 
9 
9 
9 
9 
9 
9 
9 
9 
9 
9 
9 
9 
9 
9 
9 
9 
9 
9 
9 
9 
9 
9 
9 
9 
9 
9 
9 
9 
9 
9 
9 
9 
9 
9 
9 
9 
9 
9 
9 
POINT_DATA 91
VECTORS Displacement float
-0.00390933208044 -0.395976906266 0
-0.000784745103244 -0.398072268765 0
0.0 -0.4 0
0.0 -0.4 0
0.000134718144865 -0.398050464371 0
0.000621594984278 -0.398181777258 0
0.000840421574101 -0.398462421048 0
0.000865169341627 -0.398843975374 0
0.000688100411504 -0.399297847695 0
0.0 -0.4 0
0.0 -0.4 0
0.0 -0.4 0
0.0 -0.4 0
0.0 -0.4 0
0.0 -0.4 0
0.0 -0.4 0
0.0 -0.4 0
0.0 -0.4 0
0.0 -0.4 0
0.0 -0.4 0
-0.00147853859667 -0.398545914736 0
-0.00231349756237 -0.397599574154 0
-0.0030352721587 -0.396854327447 0
-0.00361668189676 -0.39631807412 0
-0.00396972408717 -0.396026971877 0
-0.00377297802 -0.395840381768 0
-0.00351946333773 -0.395493217248 0
-0.00325226696106 -0.395274710924 0
-0.00279880847052 -0.391740535707 0
-0.00293972825925 -0.389226346549 0
-0.00346169750566 -0.38848749926 0
-0.0038555355985 -0.38962582029 0
-0.00375090353091 -0.391901813619 0
-0.00287419849238 -0.395483390009 0
-0.00213593070062 -0.396751041592 0
-0.00142302514494 -0.397546398962 0
-0.000241152938806 -0.397546481372 0
-0.00058026848692 -0.396746066884 0
-0.000857816621311 -0.395447147136 0
-0.00129788250171 -0.393647433544 0
-0.00201639831186 -0.391933326726 0
-0.00273023042806 -0.391217561917 0
-0.00343463584075 -0.391709063293 0
-0.00400608821084 -0.393248205867 0
-0.00410974228595 -0.394711886376 0
-0.00399996749869 -0.395556329086 0
-0.00398758065786 -0.395908801646 0
0.00040989807814 -0.397779564723 0
0.000148073142526 -0.39712592303 0
-0.000187502832223 -0.396242119151 0
-0.000649965590933 -0.395226276603 0
-0.00128883792468 -0.394325661313 0
-0.00207454846115 -0.393893790392 0
-0.00281113041433 -0.394117466363 0
-0.00331455130448 -0.394759130341 0
-0.0035804508785 -0.395458003178 0
-0.00368498701271 -0.395989419646 0
-0.00368513179068 -0.396278362205 0
0.00068814618259 -0.398206457198 0
0.00046797239757 -0.397794475397 0
0.000152584802001 -0.397264023928 0
-0.000276571419123 -0.396703001257 0
-0.000816584457034 -0.396245150677 0
-0.00141552839233 -0.396012981348 0
-0.0019885720316 -0.396046666407 0
-0.00245629270851 -0.396284502524 0
-0.00277912746179 -0.396593022251 0
-0.0029640214245 -0.396836667409 0
-0.00303793499141 -0.396933663034 0
0.000744047489453 -0.398749165487 0
0.00055622850509 -0.39856061655 0
0.000303262253027 -0.398296050333 0
-2.12170893497e-05 -0.398020718825 0
-0.000406082982914 -0.397796884191 0
-0.00082174414272 -0.397670592371 0
-0.0012267778465 -0.397655843771 0
-0.0015823207204 -0.397727211932 0
-0.00186560643601 -0.39782775999 0
-0.00207570415155 -0.397884347053 0
-0.00222849164328 -0.397813154041 0
0.000536465955438 -0.39939720932 0
0.000408584105831 -0.39933431518 0
0.000263850391164 -0.399235417223 0
8.82239650587e-05 -0.399131782503 0
-0.000115251295373 -0.399046529663 0
-0.000333016601395 -0.398994073205 0
-0.000546929130439 -0.398978009775 0
-0.000740593546767 -0.398990101887 0
-0.000906141030202 -0.399010593291 0
-0.00105154478287 -0.399008006536 0
-0.00121312440909 -0.398933912293 0
SCALARS EPSXX float
LOOKUP_TABLE default
-0.000180976988861
-0.000444763955783
0.00142703671886
0.00267115537003
0.000267129088636
0.0012737599277
0.00175178505558
0.00212812969598
0.00187949977133
0.00123703390794
0.00108520035202
0.00114850516231
0.00127684242999
0.00138508659471
0.00143020077784
0.00140530017183
0.00134148232873
0.00131433564932
0.0014717161989
0.00210631423004
0.00350473277872
0.00381700629421
0.00290730326581
0.00204093914279
0.000688715365219
-0.000223886596634
-0.000991333304776
-0.00035897271448
0.00103857751385
0.00120512782119
0.00118043916855
0.00147659510442
0.00201286964329
0.00105066821244
-0.000335957011976
-0.000350176635421
0.000340633285472
0.000561451686922
0.00205468104906
0.00392067921622
0.00472230910181
0.00492925468361
0.00461781422627
0.00326887385798
0.0010837673041
0.000179818392896
0.000606571918089
0.00149806810674
0.00219436695535
0.00367816115248
0.00592172606049
0.00781128659076
0.00851029325644
0.00782294393047
0.0057690286567
0.00352529629123
0.00238774077788
0.00208828617204
0.00213068658814
0.00302589223663
0.0041952573115
0.00555439911922
0.00676091494529
0.00726538725226
0.00679377770519
0.00570554461152
0.00457808631388
0.0037075227732
0.00311020878655
0.00232272628009
0.00285172556531
0.00354731048315
0.00430031555304
0.0048990358809
0.00515378901801
0.00500866855774
0.00457536395367
0.00408164785983
0.00376319668158
0.00370889043366
0.00179386491526
0.0018334229183
0.00207545470995
0.00238373491616
0.00263239017925
0.00274240926837
0.00269634024794
0.00254884526033
0.00242188467605
0.00250386036181
0.00301890041193
SCALARS EPSYY float
LOOKUP_TABLE default
-0.000537376993127
-1.76106559867e-05
-0.00557059172999
-0.0107414093425
-0.000853460538516
-0.00238953979784
-0.00355696197974
-0.00437447106981
-0.00517936863088
-0.0051968780434
-0.00510136524625
-0.00550005161908
-0.00597666133096
-0.00639515814579
-0.0066910507063
-0.00685990540395
-0.00695915939695
-0.0071218567125
-0.00760101214258
-0.00921430858345
-0.00983954359727
-0.00790618004027
-0.00604268435812
-0.0039968653349
-0.00171456727646
-0.000594382882523
0.000552482988037
-0.00143284414201
-0.00917402319426
-0.0156690907061
-0.0171147764648
-0.0154848858298
-0.0105849122458
-0.00379010060886
-0.000356437329322
-0.000181356904531
-0.00119631152465
-0.00205732968267
-0.00529715468664
-0.0109534491066
-0.0154573779312
-0.0170884966392
-0.0155055377148
-0.0100584107636
-0.00394009298085
-0.00169421711613
-0.00182253835097
-0.00299925058125
-0.00462079589773
-0.00727604984217
-0.0108227866945
-0.0139996796573
-0.0152818077507
-0.0139923323255
-0.0107854206344
-0.0074416195627
-0.00529175775366
-0.00426150236343
-0.00420030268036
-0.00573511589499
-0.0076450299872
-0.00971392302687
-0.011446557079
-0.0121930912415
-0.011671131843
-0.0102669458424
-0.00865807954046
-0.00729115200744
-0.00632654108369
-0.00486985909849
-0.00597015337026
-0.00716543965496
-0.00836271924335
-0.00930855161448
-0.00978705831501
-0.00973526452249
-0.00928127335635
-0.00868943046005
-0.0082373871896
-0.00792929505637
-0.00517818970842
-0.00553201796236
-0.00614053003658
-0.00680416895122
-0.00735796600763
-0.00770520186735
-0.00782995497673
-0.00780715273899
-0.00780136529808
-0.00807474447433
-0.00897021347379
SCALARS EPSXY float
LOOKUP_TABLE default
0.000241920086215
8.32645621084e-05
-0.00206424893598
0.00401375711311
-0.000277398967037
-0.000608281254437
-0.000459979903684
-0.000289257484823
-0.00118222719003
-0.00195173277673
-0.00163866018926
-0.00111953159914
-0.000492153030459
0.000229350789143
0.00100083192721
0.00176539549102
0.00247047286443
0.00308515987236
0.00362211187208
0.0039152440441
0.00243897208377
0.000778812028176
0.000879371420537
0.000955509889719
0.000593757687864
0.000661824503357
0.00130839969685
0.00664645727681
0.00935074910546
0.00545527511523
0.00142066575991
-0.00175301683576
-0.00527045240253
-0.00496591911176
-0.00127184098847
-0.000221783400673
-0.000741476371813
-0.00202909626683
-0.00471445870409
-0.00500573183466
-0.00208001411457
0.00150136507941
0.00554555056806
0.00849570957218
0.00654624699248
0.00261532736891
0.00124109502365
-0.00118167176368
-0.00237999744315
-0.00347640089643
-0.00349046389081
-0.00162027181186
0.00157024568244
0.00470659682443
0.00620050249209
0.00546473065527
0.00364800794209
0.00184032130767
-0.000882187682622
-0.00155965226799
-0.00187645907221
-0.00153390817694
-0.000332943906669
0.00150112561194
0.00320723751519
0.00406765249063
0.00393359444815
0.00303748630771
0.00168603393989
-0.000645942909303
-0.00107838944223
-0.00105770460079
-0.000584970752713
0.000283469378626
0.00136555766296
0.00238345990052
0.00306499853772
0.00322991988512
0.00278584294234
0.00162088267345
-0.00130847550633
-0.00132862495007
-0.000986643904497
-0.000418861757933
0.000319966481909
0.00114531626259
0.00194870303772
0.00262240429461
0.00308103894405
0.0032523170982
0.00284785425168
SCALARS SIGXX float
LOOKUP_TABLE default
-4281339.08375
-4470716.56009
-11786535.0113
-23521648.5073
-1327241.8914
1473004.4004
768921.476261
686370.415838
-5504873.01646
-11926044.512
-12980800.525
-14207516.0382
-15154348.5314
-16029597.0468
-16958466.9846
-17988309.0557
-19078977.2096
-20102390.0904
-20774444.8193
-22004002.1982
-11107837.3787
951779.580937
628465.133681
1579487.4404
-1165805.37143
-4969493.96966
-7216885.90079
-10196147.7181
-32353366.3701
-60871452.1332
-67828513.7542
-57337204.0554
-29290884.2386
-7232351.38962
-4970441.66768
-4297727.69637
-2194022.9688
-4013355.19967
-4323153.28359
-12175994.4813
-25180714.2325
-30713114.2696
-26435514.0806
-14451665.3943
-7602259.34119
-6093106.06284
-2477790.96337
855123.25112
196124.480061
2507834.22013
8177129.05394
12070574.2656
13014472.1423
12219728.3772
6843828.4447
230493.836595
-1011453.27287
817794.792501
1520399.98575
3226980.21799
5897086.76837
9701650.8416
13561609.4218
15073015.2142
12843025.7929
8625045.25789
4970478.33848
2727444.09106
1312573.90232
306183.545579
416840.937888
1730246.43735
3601018.32464
5116969.60627
5408801.43407
4217269.2916
2049644.65432
-73969.5047844
-1117264.57081
-222450.029491
-6344444.28356
-7597182.77691
-8034600.54726
-8074274.49574
-8192247.74542
-8719061.72296
-9752996.31392
-11102590.4668
-12328563.6718
-12789136.8034
-11865067.6626
SCALARS SIGYY float
LOOKUP_TABLE default
-6143259.10603
-2239164.16964
-48343842.4229
-93592138.0961
-7181473.76174
-17664961.4384
-26965260.0052
-33284792.3727
-42382112.7904
-45538360.282
-45300918.9838
-48941188.4355
-53048410.6038
-56675481.6911
-59385853.526
-61167746.6698
-62443541.8613
-64175104.1261
-68172577.1244
-81145680.1693
-80821572.143
-60292987.8149
-46128439.9077
-29963466.8612
-13721136.5056
-6905056.38443
848384.671359
-15806312.388
-85706468.2513
-149026460.44
-163407155.426
-145948092.33
-95104750.835
-32521701.2318
-5077435.81042
-3415772.49621
-10223395.2495
-17694503.9305
-42730925.4301
-89882046.689
-130604291.338
-145739184.817
-131564783.009
-84076631.1141
-33848123.3753
-15883521.8736
-15168051.8842
-22639959.834
-35407938.4251
-54719619.5822
-79300264.854
-101875200.921
-111281231.301
-101748563.336
-79640627.8519
-57063333.2306
-41131015.2983
-32355039.8595
-31554222.7382
-42542650.1424
-55959444.4527
-70063765.461
-81558638.3658
-86582793.6442
-83622138.0287
-74819116.9923
-64178460.8521
-54732299.3084
-47987295.1168
-37269626.1292
-45670793.2589
-54235757.3145
-62553745.2783
-69106911.7333
-72645807.0572
-72808611.4063
-70340787.838
-66793178.6668
-63811223.9463
-61023152.4077
-42768147.8327
-46076031.4989
-50956896.617
-56074111.6696
-60384290.3702
-63299915.0502
-64744914.3967
-65204834.5602
-65737299.9003
-68054332.9777
-74499105.0534
SCALARS SIGXY float
LOOKUP_TABLE default
1263849.17768
434994.257803
-10784136.8656
20968840.1909
-1449199.45203
-3177808.7353
-2403046.52712
-1511151.22374
-6176241.44126
-10196325.173
-8560758.07967
-5848704.47551
-2571126.74094
1198184.12268
5228588.61366
9222854.01975
12906349.1463
16117623.0908
18922790.5075
20454184.0364
12741781.4316
4068702.83811
4594049.48184
4991815.30265
3101934.10266
3457531.64784
6835397.20417
34722704.0764
48850580.1752
28499679.6929
7421902.33359
-9158184.92381
-27534121.0362
-25943165.299
-6644405.64883
-1158650.25079
-3873652.3182
-10600490.8
-24629475.1692
-26151156.615
-10866497.9803
7843495.14213
28971300.5434
44383646.371
34199181.2577
13663104.1939
6483781.27506
-6173339.75935
-12433683.6121
-18161561.0468
-18235029.5387
-8464692.73833
8203344.11071
24588402.804
32392928.1708
28549077.7263
19058077.855
9614284.64974
-4608762.3177
-8148001.54548
-9803077.09239
-8013508.17284
-1739379.68211
7842244.10601
16755386.2915
21250402.7086
20550050.9958
15868564.8318
8808250.0375
-3374562.35042
-5633767.87396
-5525705.24778
-3056029.02327
1480912.75379
7134004.27558
12451772.3288
16012295.391
16873884.4907
14553918.8866
8467884.02736
-6835793.25128
-6941058.83005
-5154466.94349
-2188235.36569
1671582.46912
5983409.80821
10180497.0819
13700075.7694
16096094.3622
16990892.9615
14877880.9997
