# vtk DataFile Version 2.0
Generated with Solid Solver
ASCII
DATASET UNSTRUCTURED_GRID
POINTS 999 float 
0.2 4.309 0.0
1.4 4.309 0.0
1.4 4.809 0.0
0.2 4.809 0.0
1.4 4.32923264049 0.0
1.4 4.35151203886 0.0
1.4 4.37604525371 0.0
1.4 4.4030602782 0.0
1.4 4.43280817466 0.0
1.4 4.46556541084 0.0
1.4 4.50163640748 0.0
1.4 4.5413564007 0.0
1.4 4.58509451608 0.0
1.4 4.63325723872 0.0
1.4 4.68629217343 0.0
1.4 4.74469218095 0.0
1.33333333333 4.809 0.0
1.26666666667 4.809 0.0
1.2 4.809 0.0
1.13333333333 4.809 0.0
1.06666666667 4.809 0.0
1.0 4.809 0.0
0.933333333334 4.809 0.0
0.866666666668 4.809 0.0
0.800000000001 4.809 0.0
0.733333333334 4.809 0.0
0.666666666668 4.809 0.0
0.600000000001 4.809 0.0
0.533333333334 4.809 0.0
0.466666666667 4.809 0.0
0.4 4.809 0.0
0.333333333334 4.809 0.0
0.266666666667 4.809 0.0
0.2 4.74469218095 0.0
0.2 4.68629217343 0.0
0.2 4.63325723872 0.0
0.2 4.58509451608 0.0
0.2 4.5413564007 0.0
0.2 4.50163640748 0.0
0.2 4.46556541084 0.0
0.2 4.43280817466 0.0
0.2 4.4030602782 0.0
0.2 4.37604525371 0.0
0.2 4.35151203886 0.0
0.2 4.32923264049 0.0
0.212131543907 4.29326329506 0.0
0.224675715302 4.27785348652 0.0
0.23762369102 4.26278141198 0.0
0.250966423879 4.24805760374 0.0
0.264694484585 4.23369246611 0.0
0.278798324214 4.21969599189 0.0
0.293267939266 4.20607810803 0.0
0.308093289028 4.19284826442 0.0
0.323263842145 4.18001585877 0.0
0.338769084145 4.16758978512 0.0
0.354597997314 4.15557887342 0.0
0.37073960121 4.14399145532 0.0
0.387182441982 4.13283575334 0.0
0.403915091795 4.12211952025 0.0
0.420925712897 4.11185033813 0.0
0.438202430937 4.10203537461 0.0
0.455733079095 4.09268154223 0.0
0.473505374364 4.08379539439 0.0
0.491506842655 4.07538316882 0.0
0.509724826085 4.0674507802 0.0
0.528146580414 4.06000377808 0.0
0.546759103951 4.05304741762 0.0
0.56554943677 4.04658654322 0.0
0.584504260001 4.04062573401 0.0
0.60361041518 4.0351691282 0.0
0.622854334779 4.03022060039 0.0
0.642222678753 4.02578358113 0.0
0.661701681839 4.02186122392 0.0
0.681277836375 4.01845624851 0.0
0.700937245817 4.01557107217 0.0
0.720666255912 4.01320769845 0.0
0.740450894784 4.01136780161 0.0
0.76027736978 4.01005266363 0.0
0.780131702711 4.00926321235 0.0
0.799999999998 4.009 0.0
0.819868297285 4.00926321235 0.0
0.839722630216 4.01005266363 0.0
0.859549105212 4.01136780161 0.0
0.879333744085 4.01320769845 0.0
0.89906275418 4.01557107217 0.0
0.918722163621 4.01845624851 0.0
0.938298318157 4.02186122392 0.0
0.957777321244 4.02578358113 0.0
0.977145665218 4.03022060039 0.0
0.996389584817 4.0351691282 0.0
1.01549574 4.04062573401 0.0
1.03445056323 4.04658654322 0.0
1.05324089605 4.05304741762 0.0
1.07185341958 4.06000377808 0.0
1.09027517391 4.0674507802 0.0
1.10849315734 4.07538316882 0.0
1.12649462563 4.08379539439 0.0
1.1442669209 4.09268154222 0.0
1.16179756906 4.1020353746 0.0
1.1790742871 4.11185033813 0.0
1.1960849082 4.12211952024 0.0
1.21281755802 4.13283575334 0.0
1.22926039879 4.14399145532 0.0
1.24540200269 4.15557887342 0.0
1.26123091585 4.16758978512 0.0
1.27673615785 4.18001585877 0.0
1.29190671097 4.19284826442 0.0
1.30673206073 4.20607810803 0.0
1.32120167579 4.21969599189 0.0
1.33530551541 4.23369246611 0.0
1.34903357612 4.24805760374 0.0
1.36237630898 4.26278141198 0.0
1.3753242847 4.27785348652 0.0
1.38786845609 4.29326329506 0.0
1.05632730172 4.44425283906 0.0
0.549964048968 4.4470053958 0.0
0.806135520676 4.29586690218 0.0
0.60389578305 4.24479310371 0.0
1.22984770884 4.36718704125 0.0
0.3703382852 4.36823552752 0.0
0.995322815839 4.23965031136 0.0
0.728315816804 4.1605935937 0.0
0.872128173905 4.15688724072 0.0
1.14059401893 4.25698468684 0.0
0.461553191009 4.25581671009 0.0
0.784706775856 4.55221390922 0.0
0.398287125272 4.56345970538 0.0
1.20625306554 4.56734743514 0.0
0.624100842742 4.1429824436 0.0
0.5257453845 4.17211776279 0.0
0.978502430793 4.13888737058 0.0
1.07419209812 4.17225154482 0.0
0.364313698077 4.27077035763 0.0
1.23509538257 4.27081716733 0.0
0.68124123937 4.37684548972 0.0
1.31679378691 4.33412066749 0.0
0.283206213094 4.33412066749 0.0
0.791498533126 4.09867141721 0.0
0.931481076052 4.3641344917 0.0
0.96671906557 4.61178042839 0.0
0.684451667517 4.09468036752 0.0
0.618335406951 4.61086910993 0.0
0.450982331762 4.18086171732 0.0
0.915674266355 4.09395633851 0.0
1.14900051594 4.18089012964 0.0
1.30193709687 4.4321448133 0.0
0.29857466761 4.43216296922 0.0
1.05734787542 4.33390107617 0.0
0.539273225177 4.33652599628 0.0
0.709896798149 4.26121026287 0.0
0.895708916005 4.25324194389 0.0
0.813273511364 4.42235766235 0.0
0.559289631452 4.11630879113 0.0
1.04001407307 4.11681539633 0.0
0.801161810585 4.21546244955 0.0
0.665113819616 4.50456650186 0.0
0.852577362173 4.07511846388 0.0
0.39025672787 4.2082806298 0.0
1.20974450479 4.20828104599 0.0
0.921542541183 4.51178058719 0.0
1.14030889032 4.34837344809 0.0
1.15600477272 4.45208538305 0.0
0.435243219029 4.4590581257 0.0
0.462045157798 4.35054654286 0.0
0.735806812738 4.06872269746 0.0
1.30082934537 4.28193772796 0.0
0.299170654625 4.28193772796 0.0
0.533651712118 4.24665983853 0.0
0.666130919144 4.20052131559 0.0
1.0676097303 4.24579469382 0.0
1.08054433577 4.56930946155 0.0
0.506773767255 4.54968295079 0.0
0.626745312844 4.08524420826 0.0
0.933845304214 4.1946954732 0.0
0.293717639664 4.53575000185 0.0
0.31250502208 4.64826411351 0.0
1.3058164124 4.53554930624 0.0
1.29054387065 4.64702765963 0.0
0.973467966326 4.08341619478 0.0
0.487935413164 4.13487084015 0.0
0.461549079751 4.67236834982 0.0
1.11203248746 4.13493503889 0.0
1.14453515393 4.69017370303 0.0
0.840217564202 4.67291146633 0.0
0.585347033288 4.18939048534 0.0
0.619177396637 4.32627576306 0.0
0.331644410315 4.23362190462 0.0
1.26835558968 4.23362190462 0.0
1.01536156978 4.18387473052 0.0
0.809331033562 4.05465709122 0.0
0.982321540791 4.31837358971 0.0
0.725600576914 4.65399651799 0.0
0.812291456186 4.15042942492 0.0
0.335887692543 4.32318235669 0.0
1.26344844681 4.32417131907 0.0
1.23449730504 4.47857441524 0.0
1.34334172095 4.38939551957 0.0
0.256658279045 4.38939551957 0.0
0.741646926828 4.32687908527 0.0
0.674799084703 4.15073768522 0.0
1.18647435526 4.29355189749 0.0
0.360563250284 4.47996479569 0.0
0.873716483853 4.32245499203 0.0
0.418704489949 4.29546264283 0.0
0.492670911224 4.21331614809 0.0
0.403480880356 4.17446776931 0.0
1.19651541215 4.1744686246 0.0
0.728649253738 4.44614546491 0.0
1.00883674467 4.38574664879 0.0
1.11035034557 4.21561841276 0.0
0.261968539765 4.2970079512 0.0
1.33803146023 4.2970079512 0.0
0.74649980488 4.1158354354 0.0
0.927597725248 4.1417597079 0.0
0.892956618256 4.06019338913 0.0
0.659794281787 4.06351387326 0.0
0.587663534405 4.07886537006 0.0
0.942353209926 4.06335300973 0.0
1.01493747319 4.07876013719 0.0
0.613130017774 4.39769803882 0.0
0.449373501074 4.13777191978 0.0
0.514840228377 4.10625850006 0.0
0.497057592 4.39733092106 0.0
1.15061382426 4.13779293084 0.0
1.08514419473 4.10628328152 0.0
0.745617635771 4.21498957592 0.0
0.875234522129 4.58253036549 0.0
0.855262884783 4.2098970831 0.0
1.01126200032 4.51680064162 0.0
1.09391916408 4.39032408872 0.0
1.04436265455 4.69882000827 0.0
0.314320181089 4.37173968607 0.0
1.28649331902 4.37143720145 0.0
0.771211579291 4.04716862024 0.0
0.432259099658 4.22406002157 0.0
0.698583889427 4.05544353526 0.0
1.16802128371 4.222862881 0.0
1.09587629216 4.2926676659 0.0
1.35920470355 4.34066960471 0.0
0.240795296449 4.34066960471 0.0
0.504003580654 4.29215758118 0.0
0.579942709371 4.5182075073 0.0
0.875915224914 4.11215792528 0.0
0.426503136644 4.39117733008 0.0
0.57541416445 4.28765301522 0.0
0.683877978289 4.31561848113 0.0
0.888061695889 4.43033509246 0.0
0.26012287522 4.48259249103 0.0
1.33987712478 4.48259249103 0.0
0.801393572636 4.35460096582 0.0
0.558460082533 4.70896728209 0.0
1.1741923373 4.39532830101 0.0
0.83220012886 4.11179415912 0.0
1.02815069622 4.28453276509 0.0
0.948308583502 4.2720204454 0.0
0.846588933095 4.49234596945 0.0
1.25632767671 4.41880360053 0.0
0.343666800815 4.41885820652 0.0
0.97849585731 4.45431535602 0.0
1.10170977548 4.49907265998 0.0
0.662193131828 4.25209398492 0.0
0.400503668388 4.25281657105 0.0
1.20117145985 4.24530427377 0.0
0.350957892513 4.20196558019 0.0
1.24904210749 4.20196558019 0.0
0.771964652188 4.17305379403 0.0
0.932165148285 4.71136281402 0.0
0.373672364094 4.71721357765 0.0
0.760245937722 4.26809350779 0.0
0.848718469252 4.04167763075 0.0
1.23385612561 4.7198294747 0.0
0.846421485813 4.26465918421 0.0
0.651597058631 4.11443284014 0.0
0.650489852552 4.70538045504 0.0
0.58457834847 4.14775088261 0.0
0.48701309933 4.17259927013 0.0
0.708495738406 4.57256947756 0.0
1.11203398596 4.17278062515 0.0
0.54865558244 4.08650047869 0.0
1.05126102377 4.08634629471 0.0
0.300013757486 4.24659646442 0.0
1.29998624251 4.24659646442 0.0
0.9465032388 4.11118070354 0.0
0.708587583337 4.12546095907 0.0
0.973348904468 4.17937871864 0.0
0.628721855632 4.17938356945 0.0
0.380175010018 4.32421880077 0.0
0.662092932411 4.44299041267 0.0
1.05133526787 4.20621992007 0.0
0.528087045766 4.62727882187 0.0
1.22233124543 4.31921693908 0.0
1.19001193434 4.34673586668 0.0
0.853024099244 4.37944003492 0.0
0.542800296246 4.20724366905 0.0
0.247706318737 4.43639119247 0.0
1.35229368126 4.43639119247 0.0
0.599153768578 4.11353797005 0.0
1.01616570494 4.14627683178 0.0
0.744705786938 4.38969544575 0.0
1.31929001115 4.72102550052 0.0
0.777615355331 4.13513602511 0.0
0.265621610877 4.59375488866 0.0
1.33132411895 4.59031378639 0.0
0.532023338888 4.13774454388 0.0
1.0697792195 4.13641429251 0.0
0.286371037106 4.71410312914 0.0
0.497725885905 4.48553668256 0.0
0.46053455822 4.29987947599 0.0
0.433799237968 4.53029400991 0.0
0.388624781906 4.63494200004 0.0
0.554823673752 4.38851940232 0.0
1.1421595646 4.30218301431 0.0
1.14760043966 4.60055103139 0.0
1.21258698805 4.63720200685 0.0
1.16279096046 4.51692621409 0.0
0.995762647814 4.10908772517 0.0
0.456229040627 4.59856685246 0.0
0.707289391156 4.19920271873 0.0
0.763036833302 4.72685445535 0.0
0.78386198569 4.48187013126 0.0
[...]
POINT_DATA 999
VECTORS Displacement float
-4.33856928084e-14 -0.0160000000001 0
3.14407955975e-14 -0.016 0
0.0 -0.016 0
0.0 -0.016 0
2.82225078764e-14 -0.016 0
2.50560692108e-14 -0.016 0
2.17933007349e-14 -0.016 0
1.82797601395e-14 -0.016 0
1.45908327834e-14 -0.016 0
1.05618880376e-14 -0.016 0
6.29690697683e-15 -0.016 0
1.8544808603e-15 -0.016 0
-2.57672788881e-15 -0.016 0
-6.27650723478e-15 -0.016 0
-8.28390535984e-15 -0.016 0
-7.11535222256e-15 -0.016 0
0.0 -0.016 0
0.0 -0.016 0
0.0 -0.016 0
0.0 -0.016 0
0.0 -0.016 0
0.0 -0.016 0
0.0 -0.016 0
0.0 -0.016 0
0.0 -0.016 0
0.0 -0.016 0
0.0 -0.016 0
0.0 -0.016 0
0.0 -0.016 0
0.0 -0.016 0
0.0 -0.016 0
0.0 -0.016 0
0.0 -0.016 0
3.22596356718e-15 -0.016 0
-7.68536287251e-16 -0.016 0
-6.84232242658e-15 -0.016 0
-1.36627957398e-14 -0.016 0
-1.97708792713e-14 -0.016 0
-2.46559848048e-14 -0.0160000000001 0
-2.86188734268e-14 -0.0160000000001 0
-3.1782158645e-14 -0.0160000000001 0
-3.44586161269e-14 -0.0160000000001 0
-3.6786684892e-14 -0.0160000000001 0
-3.88388503696e-14 -0.0160000000001 0
-4.0945291902e-14 -0.0160000000001 0
-4.54683493207e-14 -0.0160000000001 0
-4.75676893768e-14 -0.0160000000001 0
-4.94569086291e-14 -0.0160000000001 0
-5.11551727564e-14 -0.0160000000001 0
-5.26527668706e-14 -0.0160000000001 0
-5.38460302806e-14 -0.0160000000001 0
-5.48026327381e-14 -0.0160000000001 0
-5.5479813727e-14 -0.0160000000001 0
-5.59008531322e-14 -0.0160000000001 0
-5.60171313535e-14 -0.0160000000001 0
-5.58312466562e-14 -0.0160000000001 0
-5.53809937117e-14 -0.0160000000001 0
-5.46212958964e-14 -0.0160000000001 0
-5.35895361145e-14 -0.0160000000001 0
-5.22727633877e-14 -0.0160000000001 0
-5.07110637421e-14 -0.0160000000001 0
-4.88666972245e-14 -0.0160000000001 0
-4.67906859513e-14 -0.0160000000001 0
-4.44444517209e-14 -0.0160000000001 0
-4.18876735201e-14 -0.0160000000002 0
-3.9104758287e-14 -0.0160000000002 0
-3.61266258942e-14 -0.0160000000002 0
-3.29571483118e-14 -0.0160000000002 0
-2.96238363198e-14 -0.0160000000002 0
-2.61360228943e-14 -0.0160000000002 0
-2.25170959064e-14 -0.0160000000002 0
-1.87808681353e-14 -0.0160000000002 0
-1.4961511525e-14 -0.0160000000002 0
-1.10656875546e-14 -0.0160000000002 0
-7.11607170032e-15 -0.0160000000002 0
-3.12721200401e-15 -0.0160000000002 0
8.74457402574e-16 -0.0160000000002 0
4.87714294797e-15 -0.0160000000002 0
8.83594128104e-15 -0.0160000000002 0
1.27595042948e-14 -0.0160000000002 0
1.66239790609e-14 -0.0160000000002 0
2.03810252463e-14 -0.0160000000002 0
2.40442091677e-14 -0.0160000000002 0
2.75900621153e-14 -0.0160000000002 0
3.0988458784e-14 -0.0160000000002 0
3.42363357449e-14 -0.0160000000002 0
3.73065949095e-14 -0.0160000000002 0
4.01856576357e-14 -0.0160000000002 0
4.28904085765e-14 -0.0160000000001 0
4.53619716894e-14 -0.0160000000001 0
4.76203277934e-14 -0.0160000000001 0
4.963341174e-14 -0.0160000000001 0
5.14243501341e-14 -0.0160000000001 0
5.29514150772e-14 -0.0160000000001 0
5.42474913828e-14 -0.0160000000001 0
5.5268858173e-14 -0.0160000000001 0
5.60520079169e-14 -0.0160000000001 0
5.6549529583e-14 -0.0160000000001 0
5.68155376993e-14 -0.0160000000001 0
5.67987583059e-14 -0.0160000000001 0
5.65602877899e-14 -0.0160000000001 0
5.60636997311e-14 -0.0160000000001 0
5.53298975791e-14 -0.0160000000001 0
5.43348964347e-14 -0.0160000000001 0
5.31374272811e-14 -0.0160000000001 0
5.17104087378e-14 -0.0160000000001 0
5.00479923948e-14 -0.0160000000001 0
4.82179571387e-14 -0.0160000000001 0
4.62117073369e-14 -0.0160000000001 0
4.4057507114e-14 -0.0160000000001 0
4.17130146381e-14 -0.0160000000001 0
3.92603889576e-14 -0.016 0
3.67120880826e-14 -0.016 0
3.40608932251e-14 -0.016 0
3.37674068704e-14 -0.0160000000001 0
-5.45628017102e-14 -0.0160000000002 0
4.22691629221e-15 -0.0160000000002 0
-3.25136079173e-14 -0.0160000000002 0
2.76720708477e-14 -0.0160000000001 0
-4.44520172612e-14 -0.0160000000001 0
3.26873182356e-14 -0.0160000000002 0
-7.76014957828e-15 -0.0160000000002 0
1.83528715071e-14 -0.0160000000002 0
3.88946100357e-14 -0.0160000000001 0
-4.57730175336e-14 -0.0160000000001 0
4.27004885742e-15 -0.0160000000003 0
-3.53174889172e-14 -0.0160000000001 0
8.84916051872e-15 -0.016 0
-2.52695844148e-14 -0.0160000000002 0
-3.96194089645e-14 -0.0160000000002 0
3.46755221097e-14 -0.0160000000002 0
4.22234914432e-14 -0.0160000000001 0
-4.78286544119e-14 -0.0160000000001 0
3.79634337131e-14 -0.0160000000001 0
-2.9778071061e-14 -0.0160000000002 0
2.87910243253e-14 -0.0160000000001 0
-4.27084719486e-14 -0.0160000000001 0
6.41849983998e-15 -0.0160000000002 0
2.92142279286e-14 -0.0160000000002 0
4.54153893326e-14 -0.0160000000001 0
-1.3231863001e-14 -0.0160000000002 0
-8.86733026582e-14 -0.0160000000002 0
-4.69486898411e-14 -0.0160000000001 0
2.82410668025e-14 -0.0160000000002 0
4.61757449302e-14 -0.0160000000001 0
1.7572789889e-14 -0.016 0
-3.70066794076e-14 -0.0160000000001 0
3.45487249311e-14 -0.0160000000001 0
-4.50558563274e-14 -0.0160000000002 0
-1.54946274441e-14 -0.0160000000002 0
2.06997610511e-14 -0.0160000000002 0
9.00352613237e-15 -0.0160000000002 0
-3.45261253741e-14 -0.0160000000002 0
4.34707676438e-14 -0.0160000000001 0
4.23498240457e-15 -0.0160000000002 0
-5.55028794814e-14 -0.0160000000002 0
1.86782673231e-14 -0.0160000000002 0
-5.00926824851e-14 -0.0160000000001 0
4.53435607368e-14 -0.0160000000001 0
4.55364683877e-14 -0.0160000000002 0
3.26545672617e-14 -0.0160000000001 0
2.47283529469e-14 -0.0160000000001 0
-4.7192530996e-14 -0.0160000000001 0
-4.73046425224e-14 -0.0160000000001 0
-2.68687584986e-15 -0.0160000000002 0
3.61395891966e-14 -0.0160000000001 0
-4.7082059643e-14 -0.0160000000001 0
-4.06160631127e-14 -0.0160000000002 0
-2.0599251519e-14 -0.0160000000002 0
3.73272577695e-14 -0.0160000000001 0
2.39752481755e-14 -0.0160000000001 0
-5.62704176454e-14 -0.0160000000001 0
-2.31394890246e-14 -0.0160000000002 0
2.67136888228e-14 -0.0160000000002 0
-2.68394029622e-14 -0.0160000000001 0
-1.2660717349e-14 -0.016 0
5.84854504555e-15 -0.016 0
-3.41227509983e-15 -0.016 0
3.766019811e-14 -0.0160000000002 0
-4.39619170405e-14 -0.0160000000002 0
-2.84783893374e-14 -0.0160000000001 0
4.8610921703e-14 -0.0160000000001 0
-3.66624467435e-16 -0.016 0
8.69981039445e-14 -0.0160000000003 0
-3.26218236017e-14 -0.0160000000002 0
-3.62569524017e-14 -0.0160000000002 0
-5.07493563712e-14 -0.0160000000001 0
4.30605691031e-14 -0.0160000000001 0
3.6452715548e-14 -0.0160000000001 0
1.1886371151e-14 -0.0160000000002 0
3.17521239254e-14 -0.0160000000002 0
-8.79518301577e-14 -0.0160000000004 0
8.13695528762e-15 -0.0160000000002 0
-4.49164431415e-14 -0.0160000000001 0
3.12219155085e-14 -0.0160000000001 0
1.61566677455e-14 -0.0160000000001 0
2.12417469231e-14 -0.016 0
-3.78311452555e-14 -0.0160000000001 0
-1.16079844618e-14 -0.0160000000002 0
-1.70141112091e-14 -0.0160000000002 0
3.58880897637e-14 -0.0160000000001 0
-3.84849701951e-14 -0.0160000000001 0
1.84926931113e-14 -0.0160000000002 0
-4.67899148932e-14 -0.0160000000001 0
-4.33738322106e-14 -0.0160000000002 0
-5.08830785015e-14 -0.0160000000001 0
4.92235110099e-14 -0.0160000000001 0
-2.36167491005e-14 -0.0160000000003 0
3.45913223711e-14 -0.0160000000001 0
4.11440532231e-14 -0.0160000000001 0
-4.53315974544e-14 -0.0160000000001 0
3.36435315584e-14 -0.0160000000001 0
-2.65477465068e-15 -0.0160000000002 0
2.75862783488e-14 -0.0160000000002 0
2.66220495243e-14 -0.0160000000002 0
-1.66433671471e-14 -0.0160000000002 0
-2.9612370383e-14 -0.0160000000002 0
3.45285218884e-14 -0.0160000000002 0
4.37704772613e-14 -0.0160000000001 0
-4.49435103035e-14 -0.0160000000002 0
-4.81730058198e-14 -0.0160000000001 0
-4.07861370747e-14 -0.0160000000002 0
-4.9740565499e-14 -0.0160000000001 0
5.12190802557e-14 -0.0160000000001 0
4.92278573511e-14 -0.0160000000001 0
-6.49020136271e-15 -0.0160000000002 0
5.71035554109e-14 -0.0160000000003 0
1.42316665687e-14 -0.0160000000002 0
3.75207187646e-14 -0.0160000000001 0
3.25566651894e-14 -0.0160000000001 0
6.44259729475e-15 -0.016 0
-4.16279599438e-14 -0.0160000000001 0
2.50846407257e-14 -0.0160000000001 0
5.06365441674e-15 -0.0160000000002 0
-4.73986438558e-14 -0.0160000000001 0
-9.15652174674e-15 -0.0160000000002 0
4.25567986425e-14 -0.0160000000001 0
3.61272881201e-14 -0.0160000000001 0
2.70708620074e-14 -0.016 0
-4.08139095182e-14 -0.0160000000001 0
-4.4509978906e-14 -0.0160000000002 0
-6.33971332289e-14 -0.0160000000002 0
2.07925478542e-14 -0.0160000000002 0
-4.676902481e-14 -0.0160000000001 0
-3.86796692934e-14 -0.0160000000002 0
-2.39599000667e-14 -0.0160000000002 0
2.95570854681e-14 -0.0160000000002 0
-3.03073793235e-14 -0.0160000000001 0
1.0376871116e-14 -0.016 0
3.30254687227e-15 -0.0160000000002 0
-4.5606528066e-14 -0.0160000000001 0
2.79304682084e-14 -0.0160000000001 0
1.32121512361e-14 -0.0160000000002 0
3.43085606388e-14 -0.0160000000001 0
2.78105044706e-14 -0.0160000000002 0
2.88982173043e-14 -0.0160000000003 0
2.11382262943e-14 -0.0160000000001 0
-4.08447228224e-14 -0.0160000000001 0
3.81725474113e-14 -0.0160000000002 0
2.68241231694e-14 -0.0160000000001 0
-2.38724987024e-14 -0.0160000000002 0
-4.79613914495e-14 -0.0160000000001 0
4.07705290443e-14 -0.0160000000001 0
-5.24519246468e-14 -0.0160000000001 0
4.73116064278e-14 -0.0160000000001 0
-7.0082905988e-17 -0.0160000000002 0
3.46550709525e-14 -0.0160000000001 0
-7.35403976324e-15 -0.016 0
-5.3667004352e-15 -0.0160000000002 0
1.99642855495e-14 -0.0160000000002 0
-4.28858570105e-15 -0.016 0
1.23503934301e-14 -0.0160000000002 0
-1.97434614446e-14 -0.0160000000002 0
-1.07103388548e-13 -0.0160000000002 0
-3.14547326097e-14 -0.0160000000002 0
-4.37522085018e-14 -0.0160000000002 0
-5.70339431e-14 -0.0160000000003 0
4.48628397392e-14 -0.0160000000001 0
-3.59004326228e-14 -0.0160000000002 0
4.75955388399e-14 -0.0160000000001 0
-5.03420905572e-14 -0.0160000000001 0
4.14554241938e-14 -0.0160000000001 0
3.19046349008e-14 -0.0160000000002 0
-9.9783651075e-15 -0.0160000000002 0
3.21598726888e-14 -0.0160000000002 0
-2.58792090419e-14 -0.0160000000002 0
-4.5959983202e-14 -0.0160000000001 0
-4.3103735204e-14 -0.0160000000002 0
3.83030808447e-14 -0.0160000000001 0
-5.80820407164e-14 -0.0160000000001 0
3.27432648197e-14 -0.0160000000001 0
3.11427245073e-14 -0.0160000000001 0
1.71835214142e-14 -0.0160000000002 0
-3.84354607852e-14 -0.0160000000002 0
-3.37651957264e-14 -0.0160000000001 0
1.53231148917e-14 -0.016 0
-2.8398931477e-14 -0.0160000000002 0
3.86728753663e-14 -0.0160000000001 0
-1.360967561e-14 -0.0160000000002 0
-5.75944674326e-15 -0.016 0
2.33489133004e-15 -0.0160000000002 0
-1.67693804381e-14 -0.016 0
-7.64917689941e-16 -0.016 0
-3.85237166742e-14 -0.0160000000002 0
4.47945313959e-14 -0.0160000000001 0
-2.7257340045e-15 -0.016 0
-5.38157671616e-14 -0.0160000000001 0
-4.62670943655e-14 -0.0160000000001 0
-4.41508502896e-14 -0.0160000000001 0
-2.32899479726e-14 -0.0160000000001 0
-4.86028203904e-14 -0.0160000000002 0
3.56253213053e-14 -0.0160000000001 0
1.0472333264e-14 -0.0160000000001 0
1.02228128906e-15 -0.016 0
1.83839069436e-14 -0.0160000000001 0
3.87820860869e-14 -0.0160000000001 0
-4.16335739037e-14 -0.0160000000001 0
-1.31639737871e-14 -0.0160000000002 0
-4.24636511282e-14 -0.016000000001 0
5.91875627326e-16 -0.0160000000003 0
2.60940007014e-14 -0.0160000000002 0
-5.07696834315e-14 -0.0160000000001 0
2.07492065621e-14 -0.0160000000002 0
5.20654565787e-14 -0.0160000000001 0
1.26863587891e-14 -0.016 0
-1.98419474991e-15 -0.0160000000002 0
-4.82172929408e-14 -0.0160000000001 0
3.82405212329e-14 -0.0160000000001 0
-5.27787919563e-14 -0.0160000000001 0
4.99324944183e-14 -0.0160000000001 0
-5.44027873645e-14 -0.0160000000002 0
-4.63742091792e-14 -0.0160000000001 0
2.60997214619e-15 -0.0160000000002 0
-4.13709092415e-14 -0.0160000000003 0
-4.96017735175e-14 -0.0160000000001 0
4.21891860737e-14 -0.0160000000001 0
-3.46107856116e-14 -0.0160000000001 0
2.22853600948e-14 -0.0160000000001 0
2.85370008484e-14 -0.0160000000002 0
-4.84124652699e-14 -0.0160000000001 0
3.81719420218e-14 -0.0160000000001 0
1.22702066387e-14 -0.0160000000001 0
-4.40108041046e-14 -0.0160000000001 0
-4.29962570975e-14 -0.0160000000001 0
3.05808242087e-14 -0.016 0
-2.35468812128e-14 -0.0160000000002 0
1.20778209863e-14 -0.0160000000002 0
2.80038012564e-15 -0.016 0
-2.40789841566e-14 -0.0160000000001 0
-4.36214365293e-14 -0.0160000000002 0
-7.80849675624e-15 -0.0160000000002 0
3.93459315344e-15 -0.0160000000002 0
1.26807107519e-14 -0.0160000000002 0
3.4188719423e-14 -0.0160000000001 0
3.86084177761e-14 -0.0160000000001 0
-3.09730487458e-14 -0.0160000000002 0
3.12989592017e-14 -0.0160000000002 0
4.00647868464e-14 -0.0160000000001 0
2.90596156729e-14 -0.0160000000001 0
-4.4481748647e-14 -0.0160000000001 0
3.13753757895e-14 -0.0160000000001 0
4.88125828339e-14 -0.0160000000002 0
-4.66585168418e-14 -0.0160000000002 0
-3.57564818053e-14 -0.0160000000002 0
4.05418865441e-14 -0.0160000000001 0
-7.21922089346e-14 -0.0160000000002 0
2.08296454211e-14 -0.0160000000005 0
-4.55442435406e-14 -0.0160000000001 0
5.17669009584e-14 -0.0160000000001 0
-4.5759069485e-14 -0.0160000000001 0
4.26901452493e-14 -0.0160000000001 0
-2.50857842549e-14 -0.0160000000001 0
5.2076750373e-15 -0.016 0
-2.84254906086e-14 -0.0160000000002 0
3.53061334364e-14 -0.0160000000001 0
-3.59752473943e-14 -0.0160000000002 0
3.39326925626e-14 -0.0160000000001 0
2.43817892982e-14 -0.0160000000002 0
3.39991443603e-14 -0.0160000000002 0
2.34515790117e-14 -0.016 0
-3.84644961647e-14 -0.0160000000001 0
-4.8821128862e-14 -0.0160000000001 0
2.32870524181e-14 -0.0160000000002 0
4.64772020221e-14 -0.0160000000001 0
-1.80885129201e-14 -0.0160000000002 0
6.5114022145e-14 -0.0160000000002 0
-2.93494461663e-15 -0.016 0
3.41992882981e-14 -0.0160000000001 0
-4.28993269831e-14 -0.0160000000002 0
2.43056854385e-14 -0.0160000000001 0
-4.03223878274e-14 -0.0160000000001 0
9.56328910936e-15 -0.016 0
-3.33591492718e-14 -0.0160000000001 0
2.50914628382e-14 -0.0160000000002 0
3.82723401207e-14 -0.0160000000001 0
-1.29728272542e-14 -0.0160000000002 0
1.01545896819e-14 -0.0160000000002 0
1.41439745918e-14 -0.0160000000002 0
-4.9207913067e-14 -0.0160000000001 0
-4.70724479184e-14 -0.0160000000001 0
-5.29027299875e-14 -0.0160000000001 0
4.67801169703e-14 -0.0160000000001 0
1.06649995283e-14 -0.0160000000002 0
2.32465233334e-14 -0.0160000000002 0
1.60818950973e-14 -0.0160000000002 0
-6.15054102802e-15 -0.016 0
-4.63573403386e-14 -0.0160000000001 0
3.44510387e-14 -0.0160000000001 0
3.33903660109e-14 -0.0160000000001 0
-9.23213449259e-15 -0.016 0
-1.30107217118e-14 -0.016 0
3.06580586035e-14 -0.0160000000001 0
-6.75403246562e-14 -0.0160000000001 0
-2.21807091998e-14 -0.0160000000002 0
3.24225610935e-14 -0.0160000000002 0
3.58701824946e-14 -0.0160000000001 0
3.32262432742e-14 -0.0160000000002 0
3.18567288407e-14 -0.0160000000002 0
-3.67615430806e-14 -0.0160000000002 0
-4.25207151671e-14 -0.0160000000001 0
-1.87708457978e-14 -0.0160000000002 0
-2.48801414272e-14 -0.0160000000002 0
-4.31593962991e-14 -0.0160000000001 0
2.84636522198e-14 -0.0160000000001 0
-5.22387929246e-14 -0.0160000000001 0
4.48252771947e-14 -0.0160000000001 0
2.30939408217e-14 -0.0160000000002 0
3.70906725164e-14 -0.0160000000001 0
3.26721346746e-14 -0.0160000000001 0
3.04857140356e-14 -0.0160000000002 0
-4.19767140114e-14 -0.0160000000002 0
-1.17579398606e-14 -0.0160000000002 0
-4.67601212257e-14 -0.0160000000001 0
-4.31069212258e-14 -0.0160000000001 0
3.02595387885e-14 -0.0160000000001 0
7.41325030733e-14 -0.0160000000002 0
-4.12000740367e-14 -0.0160000000002 0
-4.55785241741e-14 -0.0160000000001 0
-4.81092712161e-14 -0.0160000000001 0
1.76819158936e-14 -0.0160000000002 0
3.38481669388e-14 -0.0160000000002 0
-5.25109273439e-14 -0.0160000000001 0
4.06857708504e-14 -0.0160000000001 0
-3.91784516751e-15 -0.016 0
-3.35545128682e-14 -0.0160000000002 0
4.79415401356e-14 -0.0160000000001 0
-9.99008977461e-14 -0.0160000000003 0
-2.43034933331e-15 -0.0160000000002 0
4.50260881179e-14 -0.0160000000001 0
-2.02959994835e-15 -0.0160000000002 0
-3.91543187663e-14 -0.0160000000002 0
4.77137932039e-14 -0.0160000000001 0
-4.08043311514e-14 -0.0160000000002 0
5.0431913104e-14 -0.0160000000001 0
7.48491490602e-15 -0.0160000000002 0
9.67764891003e-15 -0.0160000000002 0
7.01725102906e-15 -0.0160000000002 0
1.83972382827e-14 -0.016 0
-3.54796801922e-14 -0.0160000000001 0
-2.70852711264e-14 -0.0160000000002 0
-2.03331444202e-14 -0.0160000000002 0
-1.60247551144e-13 -0.0160000000003 0
3.89106932781e-14 -0.0160000000002 0
4.38480269566e-14 -0.0160000000001 0
-4.43172980713e-14 -0.0160000000001 0
-4.80781974286e-14 -0.0160000000001 0
-1.35037084485e-14 -0.0160000000002 0
5.27754904799e-14 -0.0160000000001 0
5.3678409857e-14 -0.0160000000001 0
1.98149027172e-14 -0.0160000000001 0
2.4907565013e-14 -0.0160000000001 0
-2.2514692812e-15 -0.0160000000002 0
2.09286914648e-15 -0.0160000000002 0
2.92999466198e-14 -0.0160000000002 0
-5.38443618966e-15 -0.0160000000002 0
-1.5123893262e-14 -0.0160000000002 0
3.03229470578e-14 -0.0160000000001 0
2.40771050314e-14 -0.016 0
-3.94498599982e-14 -0.0160000000001 0
-5.87263215378e-14 -0.0160000000002 0
2.13421025901e-14 -0.0160000000001 0
-3.9212123342e-14 -0.0160000000001 0
3.91426632513e-14 -0.0160000000003 0
-3.23491517085e-14 -0.0160000000002 0
4.08227279627e-15 -0.016 0
1.63440711092e-14 -0.0160000000002 0
2.24441626366e-14 -0.0160000000002 0
-5.303090455e-14 -0.0160000000001 0
5.2668807605e-14 -0.0160000000001 0
-4.35665595063e-14 -0.0160000000001 0
2.39463626794e-14 -0.0160000000002 0
4.21960145539e-14 -0.0160000000001 0
-2.84796011338e-14 -0.0160000000002 0
1.79231675604e-14 -0.0160000000001 0
-5.41353425284e-15 -0.0160000000002 0
-2.23025558236e-14 -0.0160000000002 0
-1.29795253203e-14 -0.0160000000002 0
5.99480285818e-15 -0.0160000000002 0
-4.45006112452e-14 -0.0160000000001 0
-2.59928555898e-14 -0.0160000000002 0
1.73855836123e-14 -0.0160000000002 0
-6.36785507822e-15 -0.0160000000002 0
-2.18574001517e-14 -0.0160000000002 0
-3.73564544038e-14 -0.0160000000002 0
-4.9382943492e-14 -0.0160000000001 0
4.91892193327e-14 -0.0160000000001 0
4.66359349525e-14 -0.0160000000001 0
1.08559716453e-14 -0.0160000000002 0
-1.67049610558e-15 -0.0160000000002 0
-3.29478902442e-14 -0.0160000000002 0
1.6949634588e-14 -0.0160000000001 0
-3.80287197685e-14 -0.0160000000001 0
-5.85448806084e-15 -0.016 0
3.55345935268e-14 -0.0160000000001 0
2.54165861556e-14 -0.0160000000001 0
2.09138542124e-15 -0.0160000000002 0
2.90301411076e-14 -0.0160000000002 0
-4.43783637164e-14 -0.0160000000001 0
3.18276555656e-14 -0.0160000000001 0
-4.6812204547e-14 -0.0160000000001 0
3.58436900535e-14 -0.016 0
2.20729041237e-14 -0.0160000000002 0
-4.66609084352e-14 -0.0160000000001 0
-2.69610073647e-14 -0.0160000000002 0
1.29076500632e-14 -0.0160000000001 0
3.58749224827e-14 -0.0160000000001 0
3.55386947685e-14 -0.0160000000002 0
2.78120752278e-14 -0.0160000000001 0
-4.14748390253e-14 -0.0160000000001 0
2.85471044386e-14 -0.016 0
4.48671785596e-14 -0.0160000000002 0
3.59016385768e-14 -0.0160000000001 0
-4.11716071519e-14 -0.0160000000002 0
-4.64505987869e-14 -0.0160000000001 0
3.48866480074e-14 -0.0160000000001 0
-4.84844464276e-14 -0.0160000000001 0
-6.22627020699e-16 -0.0160000000002 0
4.28242525737e-14 -0.0160000000001 0
2.57195416505e-14 -0.0160000000002 0
9.69811803568e-16 -0.0160000000002 0
-4.79350350499e-14 -0.0160000000002 0
4.73515841793e-14 -0.0160000000001 0
-4.99997834121e-14 -0.0160000000001 0
4.68358215627e-14 -0.0160000000001 0
4.24253070783e-14 -0.0160000000002 0
-4.48691627426e-14 -0.0160000000001 0
-8.41236687516e-16 -0.016 0
-5.08410739144e-14 -0.0160000000001 0
4.18453328461e-14 -0.0160000000001 0
-6.61444349149e-15 -0.0160000000002 0
-5.04050760579e-14 -0.0160000000001 0
5.34557104377e-14 -0.0160000000001 0
-9.27820975304e-15 -0.0160000000002 0
-1.86922420573e-14 -0.0160000000002 0
-5.45607685383e-14 -0.0160000000001 0
-4.50807443565e-14 -0.0160000000001 0
-4.0077007851e-14 -0.0160000000003 0
3.36162547698e-14 -0.0160000000001 0
2.3332700544e-14 -0.0160000000002 0
4.40298728246e-14 -0.0160000000001 0
1.5933096111e-14 -0.0160000000002 0
1.83944320563e-14 -0.016 0