# vtk DataFile Version 2.0
Generated with Solid Solver
ASCII
DATASET UNSTRUCTURED_GRID
POINTS 999 float 
0.2 4.309 0.0
1.4 4.309 0.0
1.4 4.809 0.0
0.2 4.809 0.0
1.4 4.32923264049 0.0
1.4 4.35151203886 0.0
1.4 4.37604525371 0.0
1.4 4.4030602782 0.0
1.4 4.43280817466 0.0
1.4 4.46556541084 0.0
1.4 4.50163640748 0.0
1.4 4.5413564007 0.0
1.4 4.58509451608 0.0
1.4 4.63325723872 0.0
1.4 4.68629217343 0.0
1.4 4.74469218095 0.0
1.33333333333 4.809 0.0
1.26666666667 4.809 0.0
1.2 4.809 0.0
1.13333333333 4.809 0.0
1.06666666667 4.809 0.0
1.0 4.809 0.0
0.933333333334 4.809 0.0
0.866666666668 4.809 0.0
0.800000000001 4.809 0.0
0.733333333334 4.809 0.0
0.666666666668 4.809 0.0
0.600000000001 4.809 0.0
0.533333333334 4.809 0.0
0.466666666667 4.809 0.0
0.4 4.809 0.0
0.333333333334 4.809 0.0
0.266666666667 4.809 0.0
0.2 4.74469218095 0.0
0.2 4.68629217343 0.0
0.2 4.63325723872 0.0
0.2 4.58509451608 0.0
0.2 4.5413564007 0.0
0.2 4.50163640748 0.0
0.2 4.46556541084 0.0
0.2 4.43280817466 0.0
0.2 4.4030602782 0.0
0.2 4.37604525371 0.0
0.2 4.35151203886 0.0
0.2 4.32923264049 0.0
0.212131543907 4.29326329506 0.0
0.224675715302 4.27785348652 0.0
0.23762369102 4.26278141198 0.0
0.250966423879 4.24805760374 0.0
0.264694484585 4.23369246611 0.0
0.278798324214 4.21969599189 0.0
0.293267939266 4.20607810803 0.0
0.308093289028 4.19284826442 0.0
0.323263842145 4.18001585877 0.0
0.338769084145 4.16758978512 0.0
0.354597997314 4.15557887342 0.0
0.37073960121 4.14399145532 0.0
0.387182441982 4.13283575334 0.0
0.403915091795 4.12211952025 0.0
0.420925712897 4.11185033813 0.0
0.438202430937 4.10203537461 0.0
0.455733079095 4.09268154223 0.0
0.473505374364 4.08379539439 0.0
0.491506842655 4.07538316882 0.0
0.509724826085 4.0674507802 0.0
0.528146580414 4.06000377808 0.0
0.546759103951 4.05304741762 0.0
0.56554943677 4.04658654322 0.0
0.584504260001 4.04062573401 0.0
0.60361041518 4.0351691282 0.0
0.622854334779 4.03022060039 0.0
0.642222678753 4.02578358113 0.0
0.661701681839 4.02186122392 0.0
0.681277836375 4.01845624851 0.0
0.700937245817 4.01557107217 0.0
0.720666255912 4.01320769845 0.0
0.740450894784 4.01136780161 0.0
0.76027736978 4.01005266363 0.0
0.780131702711 4.00926321235 0.0
0.799999999998 4.009 0.0
0.819868297285 4.00926321235 0.0
0.839722630216 4.01005266363 0.0
0.859549105212 4.01136780161 0.0
0.879333744085 4.01320769845 0.0
0.89906275418 4.01557107217 0.0
0.918722163621 4.01845624851 0.0
0.938298318157 4.02186122392 0.0
0.957777321244 4.02578358113 0.0
0.977145665218 4.03022060039 0.0
0.996389584817 4.0351691282 0.0
1.01549574 4.04062573401 0.0
1.03445056323 4.04658654322 0.0
1.05324089605 4.05304741762 0.0
1.07185341958 4.06000377808 0.0
1.09027517391 4.0674507802 0.0
1.10849315734 4.07538316882 0.0
1.12649462563 4.08379539439 0.0
1.1442669209 4.09268154222 0.0
1.16179756906 4.1020353746 0.0
1.1790742871 4.11185033813 0.0
1.1960849082 4.12211952024 0.0
1.21281755802 4.13283575334 0.0
1.22926039879 4.14399145532 0.0
1.24540200269 4.15557887342 0.0
1.26123091585 4.16758978512 0.0
1.27673615785 4.18001585877 0.0
1.29190671097 4.19284826442 0.0
1.30673206073 4.20607810803 0.0
1.32120167579 4.21969599189 0.0
1.33530551541 4.23369246611 0.0
1.34903357612 4.24805760374 0.0
1.36237630898 4.26278141198 0.0
1.3753242847 4.27785348652 0.0
1.38786845609 4.29326329506 0.0
1.05632730172 4.44425283906 0.0
0.549964048968 4.4470053958 0.0
0.806135520676 4.29586690218 0.0
0.60389578305 4.24479310371 0.0
1.22984770884 4.36718704125 0.0
0.3703382852 4.36823552752 0.0
0.995322815839 4.23965031136 0.0
0.728315816804 4.1605935937 0.0
0.872128173905 4.15688724072 0.0
1.14059401893 4.25698468684 0.0
0.461553191009 4.25581671009 0.0
0.784706775856 4.55221390922 0.0
0.398287125272 4.56345970538 0.0
1.20625306554 4.56734743514 0.0
0.624100842742 4.1429824436 0.0
0.5257453845 4.17211776279 0.0
0.978502430793 4.13888737058 0.0
1.07419209812 4.17225154482 0.0
0.364313698077 4.27077035763 0.0
1.23509538257 4.27081716733 0.0
0.68124123937 4.37684548972 0.0
1.31679378691 4.33412066749 0.0
0.283206213094 4.33412066749 0.0
0.791498533126 4.09867141721 0.0
0.931481076052 4.3641344917 0.0
0.96671906557 4.61178042839 0.0
0.684451667517 4.09468036752 0.0
0.618335406951 4.61086910993 0.0
0.450982331762 4.18086171732 0.0
0.915674266355 4.09395633851 0.0
1.14900051594 4.18089012964 0.0
1.30193709687 4.4321448133 0.0
0.29857466761 4.43216296922 0.0
1.05734787542 4.33390107617 0.0
0.539273225177 4.33652599628 0.0
0.709896798149 4.26121026287 0.0
0.895708916005 4.25324194389 0.0
0.813273511364 4.42235766235 0.0
0.559289631452 4.11630879113 0.0
1.04001407307 4.11681539633 0.0
0.801161810585 4.21546244955 0.0
0.665113819616 4.50456650186 0.0
0.852577362173 4.07511846388 0.0
0.39025672787 4.2082806298 0.0
1.20974450479 4.20828104599 0.0
0.921542541183 4.51178058719 0.0
1.14030889032 4.34837344809 0.0
1.15600477272 4.45208538305 0.0
0.435243219029 4.4590581257 0.0
0.462045157798 4.35054654286 0.0
0.735806812738 4.06872269746 0.0
1.30082934537 4.28193772796 0.0
0.299170654625 4.28193772796 0.0
0.533651712118 4.24665983853 0.0
0.666130919144 4.20052131559 0.0
1.0676097303 4.24579469382 0.0
1.08054433577 4.56930946155 0.0
0.506773767255 4.54968295079 0.0
0.626745312844 4.08524420826 0.0
0.933845304214 4.1946954732 0.0
0.293717639664 4.53575000185 0.0
0.31250502208 4.64826411351 0.0
1.3058164124 4.53554930624 0.0
1.29054387065 4.64702765963 0.0
0.973467966326 4.08341619478 0.0
0.487935413164 4.13487084015 0.0
0.461549079751 4.67236834982 0.0
1.11203248746 4.13493503889 0.0
1.14453515393 4.69017370303 0.0
0.840217564202 4.67291146633 0.0
0.585347033288 4.18939048534 0.0
0.619177396637 4.32627576306 0.0
0.331644410315 4.23362190462 0.0
1.26835558968 4.23362190462 0.0
1.01536156978 4.18387473052 0.0
0.809331033562 4.05465709122 0.0
0.982321540791 4.31837358971 0.0
0.725600576914 4.65399651799 0.0
0.812291456186 4.15042942492 0.0
0.335887692543 4.32318235669 0.0
1.26344844681 4.32417131907 0.0
1.23449730504 4.47857441524 0.0
1.34334172095 4.38939551957 0.0
0.256658279045 4.38939551957 0.0
0.741646926828 4.32687908527 0.0
0.674799084703 4.15073768522 0.0
1.18647435526 4.29355189749 0.0
0.360563250284 4.47996479569 0.0
0.873716483853 4.32245499203 0.0
0.418704489949 4.29546264283 0.0
0.492670911224 4.21331614809 0.0
0.403480880356 4.17446776931 0.0
1.19651541215 4.1744686246 0.0
0.728649253738 4.44614546491 0.0
1.00883674467 4.38574664879 0.0
1.11035034557 4.21561841276 0.0
0.261968539765 4.2970079512 0.0
1.33803146023 4.2970079512 0.0
0.74649980488 4.1158354354 0.0
0.927597725248 4.1417597079 0.0
0.892956618256 4.06019338913 0.0
0.659794281787 4.06351387326 0.0
0.587663534405 4.07886537006 0.0
0.942353209926 4.06335300973 0.0
1.01493747319 4.07876013719 0.0
0.613130017774 4.39769803882 0.0
0.449373501074 4.13777191978 0.0
0.514840228377 4.10625850006 0.0
0.497057592 4.39733092106 0.0
1.15061382426 4.13779293084 0.0
1.08514419473 4.10628328152 0.0
0.745617635771 4.21498957592 0.0
0.875234522129 4.58253036549 0.0
0.855262884783 4.2098970831 0.0
1.01126200032 4.51680064162 0.0
1.09391916408 4.39032408872 0.0
1.04436265455 4.69882000827 0.0
0.314320181089 4.37173968607 0.0
1.28649331902 4.37143720145 0.0
0.771211579291 4.04716862024 0.0
0.432259099658 4.22406002157 0.0
0.698583889427 4.05544353526 0.0
1.16802128371 4.222862881 0.0
1.09587629216 4.2926676659 0.0
1.35920470355 4.34066960471 0.0
0.240795296449 4.34066960471 0.0
0.504003580654 4.29215758118 0.0
0.579942709371 4.5182075073 0.0
0.875915224914 4.11215792528 0.0
0.426503136644 4.39117733008 0.0
0.57541416445 4.28765301522 0.0
0.683877978289 4.31561848113 0.0
0.888061695889 4.43033509246 0.0
0.26012287522 4.48259249103 0.0
1.33987712478 4.48259249103 0.0
0.801393572636 4.35460096582 0.0
0.558460082533 4.70896728209 0.0
1.1741923373 4.39532830101 0.0
0.83220012886 4.11179415912 0.0
1.02815069622 4.28453276509 0.0
0.948308583502 4.2720204454 0.0
0.846588933095 4.49234596945 0.0
1.25632767671 4.41880360053 0.0
0.343666800815 4.41885820652 0.0
0.97849585731 4.45431535602 0.0
1.10170977548 4.49907265998 0.0
0.662193131828 4.25209398492 0.0
0.400503668388 4.25281657105 0.0
1.20117145985 4.24530427377 0.0
0.350957892513 4.20196558019 0.0
1.24904210749 4.20196558019 0.0
0.771964652188 4.17305379403 0.0
0.932165148285 4.71136281402 0.0
0.373672364094 4.71721357765 0.0
0.760245937722 4.26809350779 0.0
0.848718469252 4.04167763075 0.0
1.23385612561 4.7198294747 0.0
0.846421485813 4.26465918421 0.0
0.651597058631 4.11443284014 0.0
0.650489852552 4.70538045504 0.0
0.58457834847 4.14775088261 0.0
0.48701309933 4.17259927013 0.0
0.708495738406 4.57256947756 0.0
1.11203398596 4.17278062515 0.0
0.54865558244 4.08650047869 0.0
1.05126102377 4.08634629471 0.0
0.300013757486 4.24659646442 0.0
1.29998624251 4.24659646442 0.0
0.9465032388 4.11118070354 0.0
0.708587583337 4.12546095907 0.0
0.973348904468 4.17937871864 0.0
0.628721855632 4.17938356945 0.0
0.380175010018 4.32421880077 0.0
0.662092932411 4.44299041267 0.0
1.05133526787 4.20621992007 0.0
0.528087045766 4.62727882187 0.0
1.22233124543 4.31921693908 0.0
1.19001193434 4.34673586668 0.0
0.853024099244 4.37944003492 0.0
0.542800296246 4.20724366905 0.0
0.247706318737 4.43639119247 0.0
1.35229368126 4.43639119247 0.0
0.599153768578 4.11353797005 0.0
1.01616570494 4.14627683178 0.0
0.744705786938 4.38969544575 0.0
1.31929001115 4.72102550052 0.0
0.777615355331 4.13513602511 0.0
0.265621610877 4.59375488866 0.0
1.33132411895 4.59031378639 0.0
0.532023338888 4.13774454388 0.0
1.0697792195 4.13641429251 0.0
0.286371037106 4.71410312914 0.0
0.497725885905 4.48553668256 0.0
0.46053455822 4.29987947599 0.0
0.433799237968 4.53029400991 0.0
0.388624781906 4.63494200004 0.0
0.554823673752 4.38851940232 0.0
1.1421595646 4.30218301431 0.0
1.14760043966 4.60055103139 0.0
1.21258698805 4.63720200685 0.0
1.16279096046 4.51692621409 0.0
0.995762647814 4.10908772517 0.0
0.456229040627 4.59856685246 0.0
0.707289391156 4.19920271873 0.0
0.763036833302 4.72685445535 0.0
0.78386198569 4.48187013126 0.0
[...]
POINT_DATA 999
VECTORS Displacement float
-4.33801795124e-14 -0.0640000000001 0
3.1444135e-14 -0.064 0
0.0 -0.064 0
0.0 -0.064 0
2.82284744567e-14 -0.064 0
2.50590537976e-14 -0.064 0
2.17967495279e-14 -0.064 0
1.82802627712e-14 -0.064 0
1.45947645871e-14 -0.064 0
1.05591600187e-14 -0.064 0
6.29275576865e-15 -0.064 0
1.85590672405e-15 -0.064 0
-2.57256370695e-15 -0.064 0
-6.27125746488e-15 -0.064 0
-8.27939672733e-15 -0.064 0
-7.11886880888e-15 -0.064 0
0.0 -0.064 0
0.0 -0.064 0
0.0 -0.064 0
0.0 -0.064 0
0.0 -0.064 0
0.0 -0.064 0
0.0 -0.064 0
0.0 -0.064 0
0.0 -0.064 0
0.0 -0.064 0
0.0 -0.064 0
0.0 -0.064 0
0.0 -0.064 0
0.0 -0.064 0
0.0 -0.064 0
0.0 -0.064 0
0.0 -0.064 0
3.22648863445e-15 -0.064 0
-7.68233846819e-16 -0.064 0
-6.84294683193e-15 -0.064 0
-1.36619975085e-14 -0.064 0
-1.97669940945e-14 -0.064 0
-2.46558932334e-14 -0.0640000000001 0
-2.86213059409e-14 -0.0640000000001 0
-3.17804340569e-14 -0.0640000000001 0
-3.44540980862e-14 -0.0640000000001 0
-3.67828681574e-14 -0.0640000000001 0
-3.88334506148e-14 -0.0640000000001 0
-4.09399750282e-14 -0.0640000000001 0
-4.54680101592e-14 -0.0640000000001 0
-4.75680482689e-14 -0.0640000000001 0
-4.94514543556e-14 -0.0640000000001 0
-5.11503503596e-14 -0.0640000000001 0
-5.26470151794e-14 -0.0640000000001 0
-5.38411288666e-14 -0.0640000000001 0
-5.47946282123e-14 -0.0640000000001 0
-5.54741728019e-14 -0.0640000000001 0
-5.58949151417e-14 -0.0640000000001 0
-5.60126856068e-14 -0.0640000000001 0
-5.58297170074e-14 -0.0640000000001 0
-5.53806994621e-14 -0.0640000000001 0
-5.46184298463e-14 -0.0640000000001 0
-5.35876232494e-14 -0.0640000000001 0
-5.2269163683e-14 -0.0640000000001 0
-5.07058638135e-14 -0.0640000000001 0
-4.88638701611e-14 -0.0640000000001 0
-4.67864827554e-14 -0.0640000000001 0
-4.44410821742e-14 -0.0640000000001 0
-4.1884424329e-14 -0.0640000000002 0
-3.91004270511e-14 -0.0640000000002 0
-3.61172819635e-14 -0.0640000000002 0
-3.29485711131e-14 -0.0640000000002 0
-2.96159298131e-14 -0.0640000000002 0
-2.61271605011e-14 -0.0640000000002 0
-2.25121651506e-14 -0.0640000000002 0
-1.87766890294e-14 -0.0640000000002 0
-1.49577184936e-14 -0.0640000000002 0
-1.10648903164e-14 -0.0640000000002 0
-7.11400532478e-15 -0.0640000000002 0
-3.12450348759e-15 -0.0640000000002 0
8.75439796287e-16 -0.0640000000002 0
4.87780539473e-15 -0.0640000000002 0
8.83986652374e-15 -0.0640000000002 0
1.27592897233e-14 -0.0640000000002 0
1.6623050791e-14 -0.0640000000002 0
2.03779069913e-14 -0.0640000000002 0
2.40438201612e-14 -0.0640000000002 0
2.75868392708e-14 -0.0640000000002 0
3.09873622245e-14 -0.0640000000002 0
3.42323554469e-14 -0.0640000000002 0
3.73043078759e-14 -0.0640000000002 0
4.01855034112e-14 -0.0640000000002 0
4.28917130478e-14 -0.0640000000001 0
4.53662346706e-14 -0.0640000000001 0
4.76216973084e-14 -0.0640000000001 0
4.96364012187e-14 -0.0640000000001 0
5.1430335843e-14 -0.0640000000001 0
5.29585080385e-14 -0.0640000000001 0
5.42498227169e-14 -0.0640000000001 0
5.5267839745e-14 -0.0640000000001 0
5.60532721004e-14 -0.0640000000001 0
5.65467436123e-14 -0.0640000000001 0
5.68138018161e-14 -0.0640000000001 0
5.68015716017e-14 -0.0640000000001 0
5.65646261404e-14 -0.0640000000001 0
5.60661661917e-14 -0.0640000000001 0
5.53305284913e-14 -0.0640000000001 0
5.43344583764e-14 -0.0640000000001 0
5.31365671423e-14 -0.0640000000001 0
5.17117309877e-14 -0.0640000000001 0
5.00497541026e-14 -0.0640000000001 0
4.82207164345e-14 -0.0640000000001 0
4.62109843512e-14 -0.0640000000001 0
4.40562005161e-14 -0.0640000000001 0
4.17091255964e-14 -0.0640000000001 0
3.92612737108e-14 -0.064 0
3.67184288753e-14 -0.064 0
3.40675376097e-14 -0.064 0
3.37690156084e-14 -0.0640000000001 0
-5.45605217109e-14 -0.0640000000002 0
4.22852511197e-15 -0.0640000000002 0
-3.25121190815e-14 -0.0640000000002 0
2.76757775201e-14 -0.0640000000001 0
-4.44486382582e-14 -0.0640000000001 0
3.26899605235e-14 -0.0640000000002 0
-7.76009040612e-15 -0.0640000000002 0
1.83525514866e-14 -0.0640000000002 0
3.88998659256e-14 -0.0640000000001 0
-4.57677707162e-14 -0.0640000000001 0
4.26845277003e-15 -0.0640000000003 0
-3.53147587878e-14 -0.0640000000001 0
8.85171876916e-15 -0.064 0
-2.52711620137e-14 -0.0640000000002 0
-3.96204053631e-14 -0.0640000000002 0
3.46775292849e-14 -0.0640000000002 0
4.22239241108e-14 -0.0640000000001 0
-4.78235334492e-14 -0.0640000000001 0
3.79690477342e-14 -0.0640000000001 0
-2.97785665803e-14 -0.0640000000002 0
2.87957529231e-14 -0.0640000000001 0
-4.27012728237e-14 -0.0640000000001 0
6.41764586017e-15 -0.0640000000002 0
2.92138095969e-14 -0.0640000000002 0
4.54166708306e-14 -0.0640000000001 0
-1.32289668539e-14 -0.0640000000002 0
-8.8670831117e-14 -0.0640000000002 0
-4.69445565561e-14 -0.0640000000001 0
2.82423107639e-14 -0.0640000000002 0
4.6178766032e-14 -0.0640000000001 0
1.75755507582e-14 -0.064 0
-3.70069173734e-14 -0.0640000000001 0
3.45521714106e-14 -0.0640000000001 0
-4.50564019572e-14 -0.0640000000002 0
-1.54931983659e-14 -0.0640000000002 0
2.07007235171e-14 -0.0640000000002 0
9.00580189442e-15 -0.0640000000002 0
-3.45238872541e-14 -0.0640000000002 0
4.34709612164e-14 -0.0640000000001 0
4.23727208952e-15 -0.0640000000002 0
-5.55019753928e-14 -0.0640000000002 0
1.86799115356e-14 -0.0640000000002 0
-5.00891074138e-14 -0.0640000000001 0
4.5341712774e-14 -0.0640000000001 0
4.55385870074e-14 -0.0640000000002 0
3.26597318929e-14 -0.0640000000001 0
2.47309896504e-14 -0.0640000000001 0
-4.71901089971e-14 -0.0640000000001 0
-4.73002195976e-14 -0.0640000000001 0
-2.68678358903e-15 -0.0640000000002 0
3.61441299011e-14 -0.0640000000001 0
-4.70795296656e-14 -0.0640000000001 0
-4.06135252059e-14 -0.0640000000002 0
-2.05961918718e-14 -0.0640000000002 0
3.73295802503e-14 -0.0640000000001 0
2.39774379732e-14 -0.0640000000001 0
-5.62707167886e-14 -0.0640000000001 0
-2.31335719523e-14 -0.0640000000002 0
2.67150591914e-14 -0.0640000000002 0
-2.68377202841e-14 -0.0640000000001 0
-1.2656200649e-14 -0.064 0
5.84985266487e-15 -0.064 0
-3.40593852359e-15 -0.064 0
3.76620893816e-14 -0.0640000000002 0
-4.39607442092e-14 -0.0640000000002 0
-2.84748631582e-14 -0.0640000000001 0
4.86124768025e-14 -0.0640000000001 0
-3.62719692481e-16 -0.064 0
8.70012322787e-14 -0.0640000000003 0
-3.26195315487e-14 -0.0640000000002 0
-3.62565962004e-14 -0.0640000000002 0
-5.07437936561e-14 -0.0640000000001 0
4.30624493814e-14 -0.0640000000001 0
3.64561450156e-14 -0.0640000000001 0
1.18856618408e-14 -0.0640000000002 0
3.17550656443e-14 -0.0640000000002 0
-8.79509842679e-14 -0.0640000000004 0
8.13707069151e-15 -0.0640000000002 0
-4.49120425903e-14 -0.0640000000001 0
3.12254568548e-14 -0.0640000000001 0
1.61600606832e-14 -0.0640000000001 0
2.12448623028e-14 -0.064 0
-3.78280612557e-14 -0.0640000000001 0
-1.16061868149e-14 -0.0640000000002 0
-1.70122781115e-14 -0.0640000000002 0
3.58919990185e-14 -0.0640000000001 0
-3.84855252615e-14 -0.0640000000001 0
1.84938292336e-14 -0.0640000000002 0
-4.67843325648e-14 -0.0640000000001 0
-4.33684250881e-14 -0.0640000000002 0
-5.08804138037e-14 -0.0640000000001 0
4.92243398069e-14 -0.0640000000001 0
-2.36127869695e-14 -0.0640000000003 0
3.45927554913e-14 -0.0640000000001 0
4.11464867016e-14 -0.0640000000001 0
-4.53308015991e-14 -0.0640000000001 0
3.36468334666e-14 -0.0640000000001 0
-2.65314337276e-15 -0.0640000000002 0
2.75865199402e-14 -0.0640000000002 0
2.66249445878e-14 -0.0640000000002 0
-1.66392022994e-14 -0.0640000000002 0
-2.96050635658e-14 -0.0640000000002 0
3.45295110996e-14 -0.0640000000002 0
4.37722756776e-14 -0.0640000000001 0
-4.49407250565e-14 -0.0640000000002 0
-4.81709315833e-14 -0.0640000000001 0
-4.07840605048e-14 -0.0640000000002 0
-4.97361359849e-14 -0.0640000000001 0
5.12239980512e-14 -0.0640000000001 0
4.92275352751e-14 -0.0640000000001 0
-6.48536430217e-15 -0.0640000000002 0
5.71004104702e-14 -0.0640000000003 0
1.4232938327e-14 -0.0640000000002 0
3.75223175558e-14 -0.0640000000001 0
3.25597972443e-14 -0.0640000000001 0
6.44428429445e-15 -0.064 0
-4.16259560376e-14 -0.0640000000001 0
2.50888697254e-14 -0.0640000000001 0
5.06458218334e-15 -0.0640000000002 0
-4.73934425193e-14 -0.0640000000001 0
-9.15347691786e-15 -0.0640000000002 0
4.25603621481e-14 -0.0640000000001 0
3.6128880939e-14 -0.0640000000001 0
2.70767359022e-14 -0.064 0
-4.08088966945e-14 -0.0640000000001 0
-4.45080129202e-14 -0.0640000000002 0
-6.3395393056e-14 -0.0640000000002 0
2.07915206911e-14 -0.0640000000002 0
-4.676584673e-14 -0.0640000000001 0
-3.86807865117e-14 -0.0640000000002 0
-2.39585016719e-14 -0.0640000000002 0
2.9558887266e-14 -0.0640000000002 0
-3.03074498977e-14 -0.0640000000001 0
1.03749089216e-14 -0.064 0
3.30282436293e-15 -0.0640000000002 0
-4.56069842719e-14 -0.0640000000001 0
2.79326819099e-14 -0.0640000000001 0
1.32122962752e-14 -0.0640000000002 0
3.43108785361e-14 -0.0640000000001 0
2.78123726224e-14 -0.0640000000002 0
2.89037028369e-14 -0.0640000000003 0
2.11406323857e-14 -0.0640000000001 0
-4.08471183904e-14 -0.0640000000001 0
3.81756168627e-14 -0.0640000000002 0
2.68259927283e-14 -0.0640000000001 0
-2.38718921916e-14 -0.0640000000002 0
-4.79564087303e-14 -0.0640000000001 0
4.07718892502e-14 -0.0640000000001 0
-5.24462554272e-14 -0.0640000000001 0
4.73136460285e-14 -0.0640000000001 0
-6.86726931694e-17 -0.0640000000002 0
3.46563829883e-14 -0.0640000000001 0
-7.35106932622e-15 -0.064 0
-5.36449748304e-15 -0.0640000000002 0
1.99630120645e-14 -0.0640000000002 0
-4.28622720015e-15 -0.064 0
1.23521853671e-14 -0.0640000000002 0
-1.97432223837e-14 -0.0640000000002 0
-1.07102154927e-13 -0.0640000000002 0
-3.14533751882e-14 -0.0640000000002 0
-4.37516237356e-14 -0.0640000000002 0
-5.70354460326e-14 -0.0640000000003 0
4.48678561049e-14 -0.0640000000001 0
-3.58954105719e-14 -0.0640000000002 0
4.75960582713e-14 -0.0640000000001 0
-5.03343979082e-14 -0.0640000000001 0
4.1456972374e-14 -0.0640000000001 0
3.19061238499e-14 -0.0640000000002 0
-9.97785089316e-15 -0.0640000000002 0
3.21612206052e-14 -0.0640000000002 0
-2.58753794223e-14 -0.0640000000002 0
-4.59542943137e-14 -0.0640000000001 0
-4.31010119096e-14 -0.0640000000002 0
3.83072903321e-14 -0.0640000000001 0
-5.8079884695e-14 -0.0640000000001 0
3.27469620523e-14 -0.0640000000001 0
3.114604205e-14 -0.0640000000001 0
1.71845074366e-14 -0.0640000000002 0
-3.84347729092e-14 -0.0640000000002 0
-3.37641683234e-14 -0.0640000000001 0
1.53253258901e-14 -0.064 0
-2.84000713186e-14 -0.0640000000002 0
3.8673112509e-14 -0.0640000000001 0
-1.36105329897e-14 -0.0640000000002 0
-5.75959670366e-15 -0.064 0
2.33524461422e-15 -0.0640000000002 0
-1.67683095419e-14 -0.064 0
-7.61536278426e-16 -0.064 0
-3.85238483564e-14 -0.0640000000002 0
4.4796217941e-14 -0.0640000000001 0
-2.72477875301e-15 -0.064 0
-5.38122914148e-14 -0.0640000000001 0
-4.62623436224e-14 -0.0640000000001 0
-4.41494193887e-14 -0.0640000000001 0
-2.32884626639e-14 -0.0640000000001 0
-4.86015368029e-14 -0.0640000000002 0
3.5630733572e-14 -0.0640000000001 0
1.04767360975e-14 -0.0640000000001 0
1.02600786851e-15 -0.064 0
1.83858599853e-14 -0.0640000000001 0
3.87854176305e-14 -0.0640000000001 0
-4.16314699359e-14 -0.0640000000001 0
-1.31616110458e-14 -0.0640000000002 0
-4.24612694502e-14 -0.064000000001 0
5.9114589986e-16 -0.0640000000003 0
2.6095684952e-14 -0.0640000000002 0
-5.0767106208e-14 -0.0640000000001 0
2.07527620537e-14 -0.0640000000002 0
5.20685705564e-14 -0.0640000000001 0
1.26860989237e-14 -0.064 0
-1.98298145951e-15 -0.0640000000002 0
-4.82126059882e-14 -0.0640000000001 0
3.82478201564e-14 -0.0640000000001 0
-5.27747692347e-14 -0.0640000000001 0
4.99321515751e-14 -0.0640000000001 0
-5.44005307695e-14 -0.0640000000002 0
-4.63692848879e-14 -0.0640000000001 0
2.6122781237e-15 -0.0640000000002 0
-4.13692193438e-14 -0.0640000000003 0
-4.95961348291e-14 -0.0640000000001 0
4.21918725032e-14 -0.0640000000001 0
-3.46093664145e-14 -0.0640000000001 0
2.22864915017e-14 -0.0640000000001 0
2.85378271621e-14 -0.0640000000002 0
-4.84072467793e-14 -0.0640000000001 0
3.8172465393e-14 -0.0640000000001 0
1.22713033664e-14 -0.0640000000001 0
-4.40116050238e-14 -0.0640000000001 0
-4.29894559846e-14 -0.0640000000001 0
3.05859081153e-14 -0.064 0
-2.35421602858e-14 -0.0640000000002 0
1.20801940624e-14 -0.0640000000002 0
2.80260819453e-15 -0.064 0
-2.40787013117e-14 -0.0640000000001 0
-4.36170779716e-14 -0.0640000000002 0
-7.80583778106e-15 -0.0640000000002 0
3.93777073416e-15 -0.0640000000002 0
1.2679919303e-14 -0.0640000000002 0
3.41924828731e-14 -0.0640000000001 0
3.86105506406e-14 -0.0640000000001 0
-3.09714435489e-14 -0.0640000000002 0
3.12977604127e-14 -0.0640000000002 0
4.00663817797e-14 -0.0640000000001 0
2.90633894859e-14 -0.0640000000001 0
-4.4477458938e-14 -0.0640000000001 0
3.13810603376e-14 -0.0640000000001 0
4.88117330994e-14 -0.0640000000002 0
-4.66561982049e-14 -0.0640000000002 0
-3.57549099131e-14 -0.0640000000002 0
4.05416553057e-14 -0.0640000000001 0
-7.21912881568e-14 -0.0640000000002 0
2.08266239917e-14 -0.0640000000005 0
-4.55404284727e-14 -0.0640000000001 0
5.17688891498e-14 -0.0640000000001 0
-4.57533665462e-14 -0.0640000000001 0
4.2693750468e-14 -0.0640000000001 0
-2.50836912902e-14 -0.0640000000001 0
5.20777116768e-15 -0.064 0
-2.8423383835e-14 -0.0640000000002 0
3.53103620432e-14 -0.0640000000001 0
-3.59762587789e-14 -0.0640000000002 0
3.39346103197e-14 -0.0640000000001 0
2.43811372317e-14 -0.0640000000002 0
3.39990433351e-14 -0.0640000000002 0
2.34561659482e-14 -0.064 0
-3.84613457547e-14 -0.0640000000001 0
-4.88184151703e-14 -0.0640000000001 0
2.32890209252e-14 -0.0640000000002 0
4.64761058655e-14 -0.0640000000001 0
-1.80893123943e-14 -0.0640000000002 0
6.51181702274e-14 -0.0640000000002 0
-2.9330189867e-15 -0.064 0
3.42026163129e-14 -0.0640000000001 0
-4.28978750181e-14 -0.0640000000002 0
2.43098469089e-14 -0.0640000000001 0
-4.03192239517e-14 -0.0640000000001 0
9.5650902755e-15 -0.064 0
-3.33590795628e-14 -0.0640000000001 0
2.50915771223e-14 -0.0640000000002 0
3.82738629668e-14 -0.0640000000001 0
-1.29690865139e-14 -0.0640000000002 0
1.01528188333e-14 -0.0640000000002 0
1.41454130701e-14 -0.0640000000002 0
-4.92049468965e-14 -0.0640000000001 0
-4.70693300464e-14 -0.0640000000001 0
-5.28979296119e-14 -0.0640000000001 0
4.67819332819e-14 -0.0640000000001 0
1.06678359882e-14 -0.0640000000002 0
2.32484209155e-14 -0.0640000000002 0
1.60804164123e-14 -0.0640000000002 0
-6.14379725331e-15 -0.064 0
-4.63531192649e-14 -0.0640000000001 0
3.44551426987e-14 -0.0640000000001 0
3.33926469549e-14 -0.0640000000001 0
-9.22941885182e-15 -0.064 0
-1.30100600904e-14 -0.064 0
3.06603549487e-14 -0.0640000000001 0
-6.75381366427e-14 -0.0640000000001 0
-2.21821348394e-14 -0.0640000000002 0
3.24221190515e-14 -0.0640000000002 0
3.5873786901e-14 -0.0640000000001 0
3.322927908e-14 -0.0640000000002 0
3.18599556169e-14 -0.0640000000002 0
-3.675969705e-14 -0.0640000000002 0
-4.25198900106e-14 -0.0640000000001 0
-1.87675439124e-14 -0.0640000000002 0
-2.48801312496e-14 -0.0640000000002 0
-4.31550625154e-14 -0.0640000000001 0
2.84682221023e-14 -0.0640000000001 0
-5.22334512883e-14 -0.0640000000001 0
4.48282631132e-14 -0.0640000000001 0
2.3095185932e-14 -0.0640000000002 0
3.70948969452e-14 -0.0640000000001 0
3.26764672133e-14 -0.0640000000001 0
3.04871975749e-14 -0.0640000000002 0
-4.19767075884e-14 -0.0640000000002 0
-1.17553108898e-14 -0.0640000000002 0
-4.67559110897e-14 -0.0640000000001 0
-4.31013518444e-14 -0.0640000000001 0
3.02660610216e-14 -0.0640000000001 0
7.41340426401e-14 -0.0640000000002 0
-4.1199032637e-14 -0.0640000000002 0
-4.55769853559e-14 -0.0640000000001 0
-4.81082764884e-14 -0.0640000000001 0
1.76824346789e-14 -0.0640000000002 0
3.38497738877e-14 -0.0640000000002 0
-5.25070829062e-14 -0.0640000000001 0
4.06871172192e-14 -0.0640000000001 0
-3.91964043978e-15 -0.064 0
-3.35480842893e-14 -0.0640000000002 0
4.79431994218e-14 -0.0640000000001 0
-9.98991257764e-14 -0.0640000000003 0
-2.43188598901e-15 -0.0640000000002 0
4.50280894136e-14 -0.0640000000001 0
-2.02652189805e-15 -0.0640000000002 0
-3.9151735602e-14 -0.0640000000002 0
4.77170727617e-14 -0.0640000000001 0
-4.08042579724e-14 -0.0640000000002 0
5.04315441616e-14 -0.0640000000001 0
7.48732611537e-15 -0.0640000000002 0
9.68167919867e-15 -0.0640000000002 0
7.01495892068e-15 -0.0640000000002 0
1.83992993764e-14 -0.064 0
-3.54760270632e-14 -0.0640000000001 0
-2.70796292344e-14 -0.0640000000002 0
-2.03286493011e-14 -0.0640000000002 0
-1.60244454507e-13 -0.0640000000003 0
3.89134033451e-14 -0.0640000000002 0
4.38503323776e-14 -0.0640000000001 0
-4.43150632899e-14 -0.0640000000001 0
-4.80741569111e-14 -0.0640000000001 0
-1.35011184228e-14 -0.0640000000002 0
5.27743546021e-14 -0.0640000000001 0
5.36798023924e-14 -0.0640000000001 0
1.98166614116e-14 -0.0640000000001 0
2.49095614813e-14 -0.0640000000001 0
-2.24650578071e-15 -0.0640000000002 0
2.09204415179e-15 -0.0640000000002 0
2.93011479102e-14 -0.0640000000002 0
-5.38172282756e-15 -0.0640000000002 0
-1.51226544883e-14 -0.0640000000002 0
3.03263950651e-14 -0.0640000000001 0
2.40822484437e-14 -0.064 0
-3.94486760827e-14 -0.0640000000001 0
-5.87255607765e-14 -0.0640000000002 0
2.13431851768e-14 -0.0640000000001 0
-3.92090020173e-14 -0.0640000000001 0
3.91411256284e-14 -0.0640000000003 0
-3.23491532263e-14 -0.0640000000002 0
4.08225162789e-15 -0.064 0
1.63450040883e-14 -0.0640000000002 0
2.24458773084e-14 -0.0640000000002 0
-5.30299445341e-14 -0.0640000000001 0
5.26673096256e-14 -0.0640000000001 0
-4.3563058294e-14 -0.0640000000001 0
2.39512491819e-14 -0.0640000000002 0
4.21980740822e-14 -0.0640000000001 0
-2.84792563476e-14 -0.0640000000002 0
1.79254797374e-14 -0.0640000000001 0
-5.41550497797e-15 -0.0640000000002 0
-2.23035835574e-14 -0.0640000000002 0
-1.2976325377e-14 -0.0640000000002 0
5.99554990939e-15 -0.0640000000002 0
-4.44994167956e-14 -0.0640000000001 0
-2.59929813047e-14 -0.0640000000002 0
1.73847959523e-14 -0.0640000000002 0
-6.36627803181e-15 -0.0640000000002 0
-2.185652146e-14 -0.0640000000002 0
-3.73549674184e-14 -0.0640000000002 0
-4.93821584479e-14 -0.0640000000001 0
4.91905461652e-14 -0.0640000000001 0
4.66370696425e-14 -0.0640000000001 0
1.08594301433e-14 -0.0640000000002 0
-1.66950285755e-15 -0.0640000000002 0
-3.29463724273e-14 -0.0640000000002 0
1.6950876206e-14 -0.0640000000001 0
-3.80280497547e-14 -0.0640000000001 0
-5.85343682647e-15 -0.064 0
3.55363873101e-14 -0.0640000000001 0
2.54186098472e-14 -0.0640000000001 0
2.09233868517e-15 -0.0640000000002 0
2.90287888848e-14 -0.0640000000002 0
-4.43745287383e-14 -0.0640000000001 0
3.18339103935e-14 -0.0640000000001 0
-4.68124737637e-14 -0.0640000000001 0
3.58465740121e-14 -0.064 0
2.20730110839e-14 -0.0640000000002 0
-4.66547220234e-14 -0.0640000000001 0
-2.69554366019e-14 -0.0640000000002 0
1.2908555654e-14 -0.0640000000001 0
3.58769687555e-14 -0.0640000000001 0
3.55404749455e-14 -0.0640000000002 0
2.78180919121e-14 -0.0640000000001 0
-4.1467856706e-14 -0.0640000000001 0
2.85527330502e-14 -0.064 0
4.48681396393e-14 -0.0640000000002 0
3.59009135241e-14 -0.0640000000001 0
-4.11693389433e-14 -0.0640000000002 0
-4.6448720823e-14 -0.0640000000001 0
3.48911572047e-14 -0.0640000000001 0
-4.84785125631e-14 -0.0640000000001 0
-6.22255126784e-16 -0.0640000000002 0
4.28279141788e-14 -0.0640000000001 0
2.57183269002e-14 -0.0640000000002 0
9.69585678548e-16 -0.0640000000002 0
-4.7931224113e-14 -0.0640000000002 0
4.73522815604e-14 -0.0640000000001 0
-4.99953174044e-14 -0.0640000000001 0
4.68353526654e-14 -0.0640000000001 0
4.24259066022e-14 -0.0640000000002 0
-4.4863704966e-14 -0.0640000000001 0
-8.40429098373e-16 -0.064 0
-5.08326689421e-14 -0.0640000000001 0
4.18464128462e-14 -0.0640000000001 0
-6.61238769973e-15 -0.0640000000002 0
-5.04025209135e-14 -0.0640000000001 0
5.34594479921e-14 -0.0640000000001 0
-9.27513440885e-15 -0.0640000000002 0
-1.86881751961e-14 -0.0640000000002 0
-5.45579053668e-14 -0.0640000000001 0
-4.50786537799e-14 -0.0640000000001 0
-4.00786666666e-14 -0.0640000000003 0
3.36201791545e-14 -0.0640000000001 0
2.33366531761e-14 -0.0640000000002 0
4.40312855631e-14 -0.0640000000001 0
1.59371302274e-14 -0.0640000000002 0