# vtk DataFile Version 2.0
Generated with Solid Solver
ASCII
DATASET UNSTRUCTURED_GRID
POINTS 999 float 
0.2 4.309 0.0
1.4 4.309 0.0
1.4 4.809 0.0
0.2 4.809 0.0
1.4 4.32923264049 0.0
1.4 4.35151203886 0.0
1.4 4.37604525371 0.0
1.4 4.4030602782 0.0
1.4 4.43280817466 0.0
1.4 4.46556541084 0.0
1.4 4.50163640748 0.0
1.4 4.5413564007 0.0
1.4 4.58509451608 0.0
1.4 4.63325723872 0.0
1.4 4.68629217343 0.0
1.4 4.74469218095 0.0
1.33333333333 4.809 0.0
1.26666666667 4.809 0.0
1.2 4.809 0.0
1.13333333333 4.809 0.0
1.06666666667 4.809 0.0
1.0 4.809 0.0
0.933333333334 4.809 0.0
0.866666666668 4.809 0.0
0.800000000001 4.809 0.0
0.733333333334 4.809 0.0
0.666666666668 4.809 0.0
0.600000000001 4.809 0.0
0.533333333334 4.809 0.0
0.466666666667 4.809 0.0
0.4 4.809 0.0
0.333333333334 4.809 0.0
0.266666666667 4.809 0.0
0.2 4.74469218095 0.0
0.2 4.68629217343 0.0
0.2 4.63325723872 0.0
0.2 4.58509451608 0.0
0.2 4.5413564007 0.0
0.2 4.50163640748 0.0
0.2 4.46556541084 0.0
0.2 4.43280817466 0.0
0.2 4.4030602782 0.0
0.2 4.37604525371 0.0
0.2 4.35151203886 0.0
0.2 4.32923264049 0.0
0.212131543907 4.29326329506 0.0
0.224675715302 4.27785348652 0.0
0.23762369102 4.26278141198 0.0
0.250966423879 4.24805760374 0.0
0.264694484585 4.23369246611 0.0
0.278798324214 4.21969599189 0.0
0.293267939266 4.20607810803 0.0
0.308093289028 4.19284826442 0.0
0.323263842145 4.18001585877 0.0
0.338769084145 4.16758978512 0.0
0.354597997314 4.15557887342 0.0
0.37073960121 4.14399145532 0.0
0.387182441982 4.13283575334 0.0
0.403915091795 4.12211952025 0.0
0.420925712897 4.11185033813 0.0
0.438202430937 4.10203537461 0.0
0.455733079095 4.09268154223 0.0
0.473505374364 4.08379539439 0.0
0.491506842655 4.07538316882 0.0
0.509724826085 4.0674507802 0.0
0.528146580414 4.06000377808 0.0
0.546759103951 4.05304741762 0.0
0.56554943677 4.04658654322 0.0
0.584504260001 4.04062573401 0.0
0.60361041518 4.0351691282 0.0
0.622854334779 4.03022060039 0.0
0.642222678753 4.02578358113 0.0
0.661701681839 4.02186122392 0.0
0.681277836375 4.01845624851 0.0
0.700937245817 4.01557107217 0.0
0.720666255912 4.01320769845 0.0
0.740450894784 4.01136780161 0.0
0.76027736978 4.01005266363 0.0
0.780131702711 4.00926321235 0.0
0.799999999998 4.009 0.0
0.819868297285 4.00926321235 0.0
0.839722630216 4.01005266363 0.0
0.859549105212 4.01136780161 0.0
0.879333744085 4.01320769845 0.0
0.89906275418 4.01557107217 0.0
0.918722163621 4.01845624851 0.0
0.938298318157 4.02186122392 0.0
0.957777321244 4.02578358113 0.0
0.977145665218 4.03022060039 0.0
0.996389584817 4.0351691282 0.0
1.01549574 4.04062573401 0.0
1.03445056323 4.04658654322 0.0
1.05324089605 4.05304741762 0.0
1.07185341958 4.06000377808 0.0
1.09027517391 4.0674507802 0.0
1.10849315734 4.07538316882 0.0
1.12649462563 4.08379539439 0.0
1.1442669209 4.09268154222 0.0
1.16179756906 4.1020353746 0.0
1.1790742871 4.11185033813 0.0
1.1960849082 4.12211952024 0.0
1.21281755802 4.13283575334 0.0
1.22926039879 4.14399145532 0.0
1.24540200269 4.15557887342 0.0
1.26123091585 4.16758978512 0.0
1.27673615785 4.18001585877 0.0
1.29190671097 4.19284826442 0.0
1.30673206073 4.20607810803 0.0
1.32120167579 4.21969599189 0.0
1.33530551541 4.23369246611 0.0
1.34903357612 4.24805760374 0.0
1.36237630898 4.26278141198 0.0
1.3753242847 4.27785348652 0.0
1.38786845609 4.29326329506 0.0
1.05632730172 4.44425283906 0.0
0.549964048968 4.4470053958 0.0
0.806135520676 4.29586690218 0.0
0.60389578305 4.24479310371 0.0
1.22984770884 4.36718704125 0.0
0.3703382852 4.36823552752 0.0
0.995322815839 4.23965031136 0.0
0.728315816804 4.1605935937 0.0
0.872128173905 4.15688724072 0.0
1.14059401893 4.25698468684 0.0
0.461553191009 4.25581671009 0.0
0.784706775856 4.55221390922 0.0
0.398287125272 4.56345970538 0.0
1.20625306554 4.56734743514 0.0
0.624100842742 4.1429824436 0.0
0.5257453845 4.17211776279 0.0
0.978502430793 4.13888737058 0.0
1.07419209812 4.17225154482 0.0
0.364313698077 4.27077035763 0.0
1.23509538257 4.27081716733 0.0
0.68124123937 4.37684548972 0.0
1.31679378691 4.33412066749 0.0
0.283206213094 4.33412066749 0.0
0.791498533126 4.09867141721 0.0
0.931481076052 4.3641344917 0.0
0.96671906557 4.61178042839 0.0
0.684451667517 4.09468036752 0.0
0.618335406951 4.61086910993 0.0
0.450982331762 4.18086171732 0.0
0.915674266355 4.09395633851 0.0
1.14900051594 4.18089012964 0.0
1.30193709687 4.4321448133 0.0
0.29857466761 4.43216296922 0.0
1.05734787542 4.33390107617 0.0
0.539273225177 4.33652599628 0.0
0.709896798149 4.26121026287 0.0
0.895708916005 4.25324194389 0.0
0.813273511364 4.42235766235 0.0
0.559289631452 4.11630879113 0.0
1.04001407307 4.11681539633 0.0
0.801161810585 4.21546244955 0.0
0.665113819616 4.50456650186 0.0
0.852577362173 4.07511846388 0.0
0.39025672787 4.2082806298 0.0
1.20974450479 4.20828104599 0.0
0.921542541183 4.51178058719 0.0
1.14030889032 4.34837344809 0.0
1.15600477272 4.45208538305 0.0
0.435243219029 4.4590581257 0.0
0.462045157798 4.35054654286 0.0
0.735806812738 4.06872269746 0.0
1.30082934537 4.28193772796 0.0
0.299170654625 4.28193772796 0.0
0.533651712118 4.24665983853 0.0
0.666130919144 4.20052131559 0.0
1.0676097303 4.24579469382 0.0
1.08054433577 4.56930946155 0.0
0.506773767255 4.54968295079 0.0
0.626745312844 4.08524420826 0.0
0.933845304214 4.1946954732 0.0
0.293717639664 4.53575000185 0.0
0.31250502208 4.64826411351 0.0
1.3058164124 4.53554930624 0.0
1.29054387065 4.64702765963 0.0
0.973467966326 4.08341619478 0.0
0.487935413164 4.13487084015 0.0
0.461549079751 4.67236834982 0.0
1.11203248746 4.13493503889 0.0
1.14453515393 4.69017370303 0.0
0.840217564202 4.67291146633 0.0
0.585347033288 4.18939048534 0.0
0.619177396637 4.32627576306 0.0
0.331644410315 4.23362190462 0.0
1.26835558968 4.23362190462 0.0
1.01536156978 4.18387473052 0.0
0.809331033562 4.05465709122 0.0
0.982321540791 4.31837358971 0.0
0.725600576914 4.65399651799 0.0
0.812291456186 4.15042942492 0.0
0.335887692543 4.32318235669 0.0
1.26344844681 4.32417131907 0.0
1.23449730504 4.47857441524 0.0
1.34334172095 4.38939551957 0.0
0.256658279045 4.38939551957 0.0
0.741646926828 4.32687908527 0.0
0.674799084703 4.15073768522 0.0
1.18647435526 4.29355189749 0.0
0.360563250284 4.47996479569 0.0
0.873716483853 4.32245499203 0.0
0.418704489949 4.29546264283 0.0
0.492670911224 4.21331614809 0.0
0.403480880356 4.17446776931 0.0
1.19651541215 4.1744686246 0.0
0.728649253738 4.44614546491 0.0
1.00883674467 4.38574664879 0.0
1.11035034557 4.21561841276 0.0
0.261968539765 4.2970079512 0.0
1.33803146023 4.2970079512 0.0
0.74649980488 4.1158354354 0.0
0.927597725248 4.1417597079 0.0
0.892956618256 4.06019338913 0.0
0.659794281787 4.06351387326 0.0
0.587663534405 4.07886537006 0.0
0.942353209926 4.06335300973 0.0
1.01493747319 4.07876013719 0.0
0.613130017774 4.39769803882 0.0
0.449373501074 4.13777191978 0.0
0.514840228377 4.10625850006 0.0
0.497057592 4.39733092106 0.0
1.15061382426 4.13779293084 0.0
1.08514419473 4.10628328152 0.0
0.745617635771 4.21498957592 0.0
0.875234522129 4.58253036549 0.0
0.855262884783 4.2098970831 0.0
1.01126200032 4.51680064162 0.0
1.09391916408 4.39032408872 0.0
1.04436265455 4.69882000827 0.0
0.314320181089 4.37173968607 0.0
1.28649331902 4.37143720145 0.0
0.771211579291 4.04716862024 0.0
0.432259099658 4.22406002157 0.0
0.698583889427 4.05544353526 0.0
1.16802128371 4.222862881 0.0
1.09587629216 4.2926676659 0.0
1.35920470355 4.34066960471 0.0
0.240795296449 4.34066960471 0.0
0.504003580654 4.29215758118 0.0
0.579942709371 4.5182075073 0.0
0.875915224914 4.11215792528 0.0
0.426503136644 4.39117733008 0.0
0.57541416445 4.28765301522 0.0
0.683877978289 4.31561848113 0.0
0.888061695889 4.43033509246 0.0
0.26012287522 4.48259249103 0.0
1.33987712478 4.48259249103 0.0
0.801393572636 4.35460096582 0.0
0.558460082533 4.70896728209 0.0
1.1741923373 4.39532830101 0.0
0.83220012886 4.11179415912 0.0
1.02815069622 4.28453276509 0.0
0.948308583502 4.2720204454 0.0
0.846588933095 4.49234596945 0.0
1.25632767671 4.41880360053 0.0
0.343666800815 4.41885820652 0.0
0.97849585731 4.45431535602 0.0
1.10170977548 4.49907265998 0.0
0.662193131828 4.25209398492 0.0
0.400503668388 4.25281657105 0.0
1.20117145985 4.24530427377 0.0
0.350957892513 4.20196558019 0.0
1.24904210749 4.20196558019 0.0
0.771964652188 4.17305379403 0.0
0.932165148285 4.71136281402 0.0
0.373672364094 4.71721357765 0.0
0.760245937722 4.26809350779 0.0
0.848718469252 4.04167763075 0.0
1.23385612561 4.7198294747 0.0
0.846421485813 4.26465918421 0.0
0.651597058631 4.11443284014 0.0
0.650489852552 4.70538045504 0.0
0.58457834847 4.14775088261 0.0
0.48701309933 4.17259927013 0.0
0.708495738406 4.57256947756 0.0
1.11203398596 4.17278062515 0.0
0.54865558244 4.08650047869 0.0
1.05126102377 4.08634629471 0.0
0.300013757486 4.24659646442 0.0
1.29998624251 4.24659646442 0.0
0.9465032388 4.11118070354 0.0
0.708587583337 4.12546095907 0.0
0.973348904468 4.17937871864 0.0
0.628721855632 4.17938356945 0.0
0.380175010018 4.32421880077 0.0
0.662092932411 4.44299041267 0.0
1.05133526787 4.20621992007 0.0
0.528087045766 4.62727882187 0.0
1.22233124543 4.31921693908 0.0
1.19001193434 4.34673586668 0.0
0.853024099244 4.37944003492 0.0
0.542800296246 4.20724366905 0.0
0.247706318737 4.43639119247 0.0
1.35229368126 4.43639119247 0.0
0.599153768578 4.11353797005 0.0
1.01616570494 4.14627683178 0.0
0.744705786938 4.38969544575 0.0
1.31929001115 4.72102550052 0.0
0.777615355331 4.13513602511 0.0
0.265621610877 4.59375488866 0.0
1.33132411895 4.59031378639 0.0
0.532023338888 4.13774454388 0.0
1.0697792195 4.13641429251 0.0
0.286371037106 4.71410312914 0.0
0.497725885905 4.48553668256 0.0
0.46053455822 4.29987947599 0.0
0.433799237968 4.53029400991 0.0
0.388624781906 4.63494200004 0.0
0.554823673752 4.38851940232 0.0
1.1421595646 4.30218301431 0.0
1.14760043966 4.60055103139 0.0
1.21258698805 4.63720200685 0.0
1.16279096046 4.51692621409 0.0
0.995762647814 4.10908772517 0.0
0.456229040627 4.59856685246 0.0
0.707289391156 4.19920271873 0.0
0.763036833302 4.72685445535 0.0
0.78386198569 4.48187013126 0.0
[...]
POINT_DATA 999
VECTORS Displacement float
-4.33808957325e-14 -0.0800000000001 0
3.14503679325e-14 -0.08 0
0.0 -0.08 0
0.0 -0.08 0
2.8230184636e-14 -0.08 0
2.50648537705e-14 -0.08 0
2.17999736182e-14 -0.08 0
1.82847637621e-14 -0.08 0
1.45931451895e-14 -0.08 0
1.05635810604e-14 -0.08 0
6.29753961511e-15 -0.08 0
1.86095108205e-15 -0.08 0
-2.56702001352e-15 -0.08 0
-6.27539673705e-15 -0.08 0
-8.28101611701e-15 -0.08 0
-7.11050475454e-15 -0.08 0
0.0 -0.08 0
0.0 -0.08 0
0.0 -0.08 0
0.0 -0.08 0
0.0 -0.08 0
0.0 -0.08 0
0.0 -0.08 0
0.0 -0.08 0
0.0 -0.08 0
0.0 -0.08 0
0.0 -0.08 0
0.0 -0.08 0
0.0 -0.08 0
0.0 -0.08 0
0.0 -0.08 0
0.0 -0.08 0
0.0 -0.08 0
3.22565453809e-15 -0.08 0
-7.72072642581e-16 -0.08 0
-6.84414967993e-15 -0.08 0
-1.36681847884e-14 -0.08 0
-1.97726841856e-14 -0.08 0
-2.4665518082e-14 -0.0800000000001 0
-2.86191245878e-14 -0.0800000000001 0
-3.17809881158e-14 -0.0800000000001 0
-3.44525885379e-14 -0.0800000000001 0
-3.6782380149e-14 -0.0800000000001 0
-3.88322151668e-14 -0.0800000000001 0
-4.0943339472e-14 -0.0800000000001 0
-4.54648384493e-14 -0.0800000000001 0
-4.75693388328e-14 -0.0800000000001 0
-4.9453969792e-14 -0.0800000000001 0
-5.11538544108e-14 -0.0800000000001 0
-5.2648068215e-14 -0.0800000000001 0
-5.3837393706e-14 -0.0800000000001 0
-5.47969170475e-14 -0.0800000000001 0
-5.54773658134e-14 -0.0800000000001 0
-5.58995071042e-14 -0.0800000000001 0
-5.60147851665e-14 -0.0800000000001 0
-5.58294593522e-14 -0.0800000000001 0
-5.5374933148e-14 -0.0800000000001 0
-5.46173125023e-14 -0.0800000000001 0
-5.35806087429e-14 -0.0800000000001 0
-5.22646971906e-14 -0.0800000000001 0
-5.07016297324e-14 -0.0800000000001 0
-4.88613636549e-14 -0.0800000000001 0
-4.67822816242e-14 -0.0800000000001 0
-4.44352309103e-14 -0.0800000000001 0
-4.18765574609e-14 -0.0800000000002 0
-3.90921603015e-14 -0.0800000000002 0
-3.61116661549e-14 -0.0800000000002 0
-3.29455436362e-14 -0.0800000000002 0
-2.96163296069e-14 -0.0800000000002 0
-2.6126834046e-14 -0.0800000000002 0
-2.25059662723e-14 -0.0800000000002 0
-1.87709568398e-14 -0.0800000000002 0
-1.49527854275e-14 -0.0800000000002 0
-1.10577436259e-14 -0.0800000000002 0
-7.10483701865e-15 -0.0800000000002 0
-3.11895843996e-15 -0.0800000000002 0
8.84859486481e-16 -0.0800000000002 0
4.88807552591e-15 -0.0800000000002 0
8.84569979212e-15 -0.0800000000002 0
1.27674862056e-14 -0.0800000000002 0
1.66296774999e-14 -0.0800000000002 0
2.03825707328e-14 -0.0800000000002 0
2.40472103998e-14 -0.0800000000002 0
2.75936984493e-14 -0.0800000000002 0
3.09920328875e-14 -0.0800000000002 0
3.42409408645e-14 -0.0800000000002 0
3.73095553765e-14 -0.0800000000002 0
4.01885884781e-14 -0.0800000000002 0
4.28931688675e-14 -0.0800000000001 0
4.5367672921e-14 -0.0800000000001 0
4.76243906846e-14 -0.0800000000001 0
4.96386062092e-14 -0.0800000000001 0
5.14357392498e-14 -0.0800000000001 0
5.29621505382e-14 -0.0800000000001 0
5.42530614533e-14 -0.0800000000001 0
5.52725816935e-14 -0.0800000000001 0
5.60599896176e-14 -0.0800000000001 0
5.65571130641e-14 -0.0800000000001 0
5.68217310653e-14 -0.0800000000001 0
5.68074553606e-14 -0.0800000000001 0
5.65660810072e-14 -0.0800000000001 0
5.6069241057e-14 -0.0800000000001 0
5.53361831608e-14 -0.0800000000001 0
5.43391114328e-14 -0.0800000000001 0
5.31379783273e-14 -0.0800000000001 0
5.17109332613e-14 -0.0800000000001 0
5.00535555617e-14 -0.0800000000001 0
4.82262245475e-14 -0.0800000000001 0
4.62225748076e-14 -0.0800000000001 0
4.40648572788e-14 -0.0800000000001 0
4.17221947746e-14 -0.0800000000001 0
3.92677721038e-14 -0.08 0
3.67187658223e-14 -0.08 0
3.40687530606e-14 -0.08 0
3.37709243773e-14 -0.0800000000001 0
-5.45631845741e-14 -0.0800000000002 0
4.23084075012e-15 -0.0800000000002 0
-3.25090520629e-14 -0.0800000000002 0
2.76775194393e-14 -0.0800000000001 0
-4.44494580272e-14 -0.0800000000001 0
3.26936379211e-14 -0.0800000000002 0
-7.75661667106e-15 -0.0800000000002 0
1.83586225502e-14 -0.0800000000002 0
3.88983400545e-14 -0.0800000000001 0
-4.57692083089e-14 -0.0800000000001 0
4.26575824615e-15 -0.0800000000003 0
-3.53204797161e-14 -0.0800000000001 0
8.85350774058e-15 -0.08 0
-2.52653818261e-14 -0.0800000000002 0
-3.96162007833e-14 -0.0800000000002 0
3.46817137766e-14 -0.0800000000002 0
4.22314545902e-14 -0.0800000000001 0
-4.78232541633e-14 -0.0800000000001 0
3.79744255869e-14 -0.0800000000001 0
-2.97799204061e-14 -0.0800000000002 0
2.87959992831e-14 -0.0800000000001 0
-4.27051478853e-14 -0.0800000000001 0
6.42363786016e-15 -0.0800000000002 0
2.92178925902e-14 -0.0800000000002 0
4.5419263524e-14 -0.0800000000001 0
-1.32257629108e-14 -0.0800000000002 0
-8.86739268106e-14 -0.0800000000002 0
-4.69463441289e-14 -0.0800000000001 0
2.8246416613e-14 -0.0800000000002 0
4.61803422031e-14 -0.0800000000001 0
1.75771396543e-14 -0.08 0
-3.70058889389e-14 -0.0800000000001 0
3.45545619113e-14 -0.0800000000001 0
-4.50572165316e-14 -0.0800000000002 0
-1.54918136615e-14 -0.0800000000002 0
2.07039408903e-14 -0.0800000000002 0
9.00974776907e-15 -0.0800000000002 0
-3.45194456135e-14 -0.0800000000002 0
4.34777187882e-14 -0.0800000000001 0
4.2358233077e-15 -0.0800000000002 0
-5.55077836466e-14 -0.0800000000002 0
1.86845978748e-14 -0.0800000000002 0
-5.00905508556e-14 -0.0800000000001 0
4.53487500809e-14 -0.0800000000001 0
4.55368628454e-14 -0.0800000000002 0
3.26584189529e-14 -0.0800000000001 0
2.47325307152e-14 -0.0800000000001 0
-4.7196639885e-14 -0.0800000000001 0
-4.73028610103e-14 -0.0800000000001 0
-2.67783425793e-15 -0.0800000000002 0
3.61468796323e-14 -0.0800000000001 0
-4.70792392358e-14 -0.0800000000001 0
-4.06106713377e-14 -0.0800000000002 0
-2.05944734301e-14 -0.0800000000002 0
3.73352398623e-14 -0.0800000000001 0
2.39800464964e-14 -0.0800000000001 0
-5.6271935722e-14 -0.0800000000001 0
-2.31325593355e-14 -0.0800000000002 0
2.6723325936e-14 -0.0800000000002 0
-2.68439332161e-14 -0.0800000000001 0
-1.26603323264e-14 -0.08 0
5.855491418e-15 -0.08 0
-3.40851806953e-15 -0.08 0
3.76679199147e-14 -0.0800000000002 0
-4.39556196177e-14 -0.0800000000002 0
-2.84820864873e-14 -0.0800000000001 0
4.86195080148e-14 -0.0800000000001 0
-3.64598241408e-16 -0.08 0
8.69993224477e-14 -0.0800000000003 0
-3.26159339467e-14 -0.0800000000002 0
-3.62571469811e-14 -0.0800000000002 0
-5.07451653713e-14 -0.0800000000001 0
4.30682104263e-14 -0.0800000000001 0
3.64612113612e-14 -0.0800000000001 0
1.18938027724e-14 -0.0800000000002 0
3.1755639955e-14 -0.0800000000002 0
-8.79556698193e-14 -0.0800000000004 0
8.14037938026e-15 -0.0800000000002 0
-4.49104962448e-14 -0.0800000000001 0
3.12266412285e-14 -0.0800000000001 0
1.61582687491e-14 -0.0800000000001 0
2.12498663526e-14 -0.08 0
-3.78277105361e-14 -0.0800000000001 0
-1.16041387305e-14 -0.0800000000002 0
-1.70070723422e-14 -0.0800000000002 0
3.58955611229e-14 -0.0800000000001 0
-3.84844405564e-14 -0.0800000000001 0
1.84963396581e-14 -0.0800000000002 0
-4.67818437049e-14 -0.0800000000001 0
-4.33689987833e-14 -0.0800000000002 0
-5.08806449196e-14 -0.0800000000001 0
4.92277322913e-14 -0.0800000000001 0
-2.36142424244e-14 -0.0800000000003 0
3.45930659528e-14 -0.0800000000001 0
4.1149480461e-14 -0.0800000000001 0
-4.53291693385e-14 -0.0800000000001 0
3.36490543373e-14 -0.0800000000001 0
-2.64797655939e-15 -0.0800000000002 0
2.75911469371e-14 -0.0800000000002 0
2.66274412414e-14 -0.0800000000002 0
-1.66405728127e-14 -0.0800000000002 0
-2.96044924852e-14 -0.0800000000002 0
3.45326441099e-14 -0.0800000000002 0
4.37799102991e-14 -0.0800000000001 0
-4.49445957671e-14 -0.0800000000002 0
-4.81662915881e-14 -0.0800000000001 0
-4.07793847614e-14 -0.0800000000002 0
-4.97396697815e-14 -0.0800000000001 0
5.12266011754e-14 -0.0800000000001 0
4.92346820262e-14 -0.0800000000001 0
-6.48299676815e-15 -0.0800000000002 0
5.71028972398e-14 -0.0800000000003 0
1.42362739705e-14 -0.0800000000002 0
3.75250573732e-14 -0.0800000000001 0
3.2561502176e-14 -0.0800000000001 0
6.44403712999e-15 -0.08 0
-4.16247724067e-14 -0.0800000000001 0
2.50923256273e-14 -0.0800000000001 0
5.07318847422e-15 -0.0800000000002 0
-4.73946285954e-14 -0.0800000000001 0
-9.14617797747e-15 -0.0800000000002 0
4.2566096069e-14 -0.0800000000001 0
3.61332495586e-14 -0.0800000000001 0
2.70788164748e-14 -0.08 0
-4.08109032833e-14 -0.0800000000001 0
-4.45047937674e-14 -0.0800000000002 0
-6.33995739577e-14 -0.0800000000002 0
2.07970071783e-14 -0.0800000000002 0
-4.676494518e-14 -0.0800000000001 0
-3.86817367445e-14 -0.0800000000002 0
-2.39590907672e-14 -0.0800000000002 0
2.95651205798e-14 -0.0800000000002 0
-3.03111838505e-14 -0.0800000000001 0
1.03783828589e-14 -0.08 0
3.30585519364e-15 -0.0800000000002 0
-4.56097526667e-14 -0.0800000000001 0
2.79353647189e-14 -0.0800000000001 0
1.32165920686e-14 -0.0800000000002 0
3.43152196801e-14 -0.0800000000001 0
2.78143492375e-14 -0.0800000000002 0
2.89003732877e-14 -0.0800000000003 0
2.11460219413e-14 -0.0800000000001 0
-4.08443993369e-14 -0.0800000000001 0
3.81767128927e-14 -0.0800000000002 0
2.68283132023e-14 -0.0800000000001 0
-2.38714685043e-14 -0.0800000000002 0
-4.79549146634e-14 -0.0800000000001 0
4.07807154452e-14 -0.0800000000001 0
-5.24473955418e-14 -0.0800000000001 0
4.73193859026e-14 -0.0800000000001 0
-6.47840504701e-17 -0.0800000000002 0
3.46572247943e-14 -0.0800000000001 0
-7.35435851253e-15 -0.08 0
-5.3630390262e-15 -0.0800000000002 0
1.99704481903e-14 -0.0800000000002 0
-4.29037938689e-15 -0.08 0
1.23537228022e-14 -0.0800000000002 0
-1.97360930525e-14 -0.0800000000002 0
-1.07104985298e-13 -0.0800000000002 0
-3.14509206612e-14 -0.0800000000002 0
-4.37490650252e-14 -0.0800000000002 0
-5.70409501304e-14 -0.0800000000003 0
4.4871100969e-14 -0.0800000000001 0
-3.58917561971e-14 -0.0800000000002 0
4.76029434497e-14 -0.0800000000001 0
-5.03374109318e-14 -0.0800000000001 0
4.14630446126e-14 -0.0800000000001 0
3.19136200518e-14 -0.0800000000002 0
-9.97018045168e-15 -0.0800000000002 0
3.21654018403e-14 -0.0800000000002 0
-2.58762480124e-14 -0.0800000000002 0
-4.59544919247e-14 -0.0800000000001 0
-4.31032523655e-14 -0.0800000000002 0
3.83116552939e-14 -0.0800000000001 0
-5.80862215999e-14 -0.0800000000001 0
3.27479570422e-14 -0.0800000000001 0
3.11496807381e-14 -0.0800000000001 0
1.71877570066e-14 -0.0800000000002 0
-3.84309482122e-14 -0.0800000000002 0
-3.37644113855e-14 -0.0800000000001 0
1.53255938871e-14 -0.08 0
-2.83960896633e-14 -0.0800000000002 0
3.86795805212e-14 -0.0800000000001 0
-1.36056639379e-14 -0.0800000000002 0
-5.75758125794e-15 -0.08 0
2.34244926533e-15 -0.0800000000002 0
-1.67719771842e-14 -0.08 0
-7.61130290478e-16 -0.08 0
-3.85204896011e-14 -0.0800000000002 0
4.48017059155e-14 -0.0800000000001 0
-2.72625972741e-15 -0.08 0
-5.38167366454e-14 -0.0800000000001 0
-4.6263909625e-14 -0.0800000000001 0
-4.41582729419e-14 -0.0800000000001 0
-2.32927049672e-14 -0.0800000000001 0
-4.86037736879e-14 -0.0800000000002 0
3.56332756626e-14 -0.0800000000001 0
1.04789677195e-14 -0.0800000000001 0
1.02322776059e-15 -0.08 0
1.83870535068e-14 -0.0800000000001 0
3.8790678701e-14 -0.0800000000001 0
-4.16380406583e-14 -0.0800000000001 0
-1.31599532605e-14 -0.0800000000002 0
-4.24630614063e-14 -0.080000000001 0
5.90111254802e-16 -0.0800000000003 0
2.60937322987e-14 -0.0800000000002 0
-5.0762857911e-14 -0.0800000000001 0
2.07558417542e-14 -0.0800000000002 0
5.20749372183e-14 -0.0800000000001 0
1.26882936799e-14 -0.08 0
-1.97530516105e-15 -0.0800000000002 0
-4.82126035711e-14 -0.0800000000001 0
3.82508572509e-14 -0.0800000000001 0
-5.27768187483e-14 -0.0800000000001 0
4.99369647041e-14 -0.0800000000001 0
-5.44062609391e-14 -0.0800000000002 0
-4.63704811945e-14 -0.0800000000001 0
2.61784284261e-15 -0.0800000000002 0
-4.13745191379e-14 -0.0800000000003 0
-4.95998008241e-14 -0.0800000000001 0
4.21955745566e-14 -0.0800000000001 0
-3.46097523977e-14 -0.0800000000001 0
2.22916612027e-14 -0.0800000000001 0
2.85414485167e-14 -0.0800000000002 0
-4.84100684794e-14 -0.0800000000001 0
3.81787545978e-14 -0.0800000000001 0
1.22727971429e-14 -0.0800000000001 0
-4.40137914235e-14 -0.0800000000001 0
-4.2991655845e-14 -0.0800000000001 0
3.05896000491e-14 -0.08 0
-2.35413943579e-14 -0.0800000000002 0
1.20847419523e-14 -0.0800000000002 0
2.80659383599e-15 -0.08 0
-2.40785140322e-14 -0.0800000000001 0
-4.36156582426e-14 -0.0800000000002 0
-7.80225984255e-15 -0.0800000000002 0
3.93777901817e-15 -0.0800000000002 0
1.26878412212e-14 -0.0800000000002 0
3.41942709869e-14 -0.0800000000001 0
3.86166019342e-14 -0.0800000000001 0
-3.09726445655e-14 -0.0800000000002 0
3.13032955149e-14 -0.0800000000002 0
4.00707565295e-14 -0.0800000000001 0
2.90626099376e-14 -0.0800000000001 0
-4.44771927562e-14 -0.0800000000001 0
3.13823681796e-14 -0.0800000000001 0
4.88112260443e-14 -0.0800000000002 0
-4.66573650424e-14 -0.0800000000002 0
-3.57543590489e-14 -0.0800000000002 0
4.05481005176e-14 -0.0800000000001 0
-7.2196538876e-14 -0.0800000000002 0
2.08253661006e-14 -0.0800000000005 0
-4.55345498234e-14 -0.0800000000001 0
5.17723559713e-14 -0.0800000000001 0
-4.57554022741e-14 -0.0800000000001 0
4.26974635519e-14 -0.0800000000001 0
-2.5090290978e-14 -0.0800000000001 0
5.21309554896e-15 -0.08 0
-2.84205223021e-14 -0.0800000000002 0
3.53140239743e-14 -0.0800000000001 0
-3.59741589049e-14 -0.0800000000002 0
3.39359884067e-14 -0.0800000000001 0
2.43872056537e-14 -0.0800000000002 0
3.40019475183e-14 -0.0800000000002 0
2.34604263139e-14 -0.08 0
-3.84583772492e-14 -0.0800000000001 0
-4.88193520003e-14 -0.0800000000001 0
2.3293932435e-14 -0.0800000000002 0
4.64826942168e-14 -0.0800000000001 0
-1.80858666179e-14 -0.0800000000002 0
6.51169993715e-14 -0.0800000000002 0
-2.9343977149e-15 -0.08 0
3.42045081692e-14 -0.0800000000001 0
-4.29019043969e-14 -0.0800000000002 0
2.43142491459e-14 -0.0800000000001 0
-4.03202732683e-14 -0.0800000000001 0
9.56783271445e-15 -0.08 0
-3.33658256698e-14 -0.0800000000001 0
2.50971365991e-14 -0.0800000000002 0
3.82785147899e-14 -0.0800000000001 0
-1.29601557224e-14 -0.0800000000002 0
1.01596337244e-14 -0.0800000000002 0
1.41504424427e-14 -0.0800000000002 0
-4.92083547467e-14 -0.0800000000001 0
-4.70660214323e-14 -0.0800000000001 0
-5.28964938348e-14 -0.0800000000001 0
4.67879233103e-14 -0.0800000000001 0
1.06701868032e-14 -0.0800000000002 0
2.3251934165e-14 -0.0800000000002 0
1.60882845481e-14 -0.0800000000002 0
-6.14735059726e-15 -0.08 0
-4.63516691916e-14 -0.0800000000001 0
3.44571272771e-14 -0.0800000000001 0
3.33938942282e-14 -0.0800000000001 0
-9.23335920215e-15 -0.08 0
-1.30115689522e-14 -0.08 0
3.06627573086e-14 -0.0800000000001 0
-6.75413330423e-14 -0.0800000000001 0
-2.21770399875e-14 -0.0800000000002 0
3.24242214336e-14 -0.0800000000002 0
3.58777447344e-14 -0.0800000000001 0
3.3234894748e-14 -0.0800000000002 0
3.1865383868e-14 -0.0800000000002 0
-3.67598481098e-14 -0.0800000000002 0
-4.25236654052e-14 -0.0800000000001 0
-1.87657288474e-14 -0.0800000000002 0
-2.48739657869e-14 -0.0800000000002 0
-4.31564171784e-14 -0.0800000000001 0
2.84691041283e-14 -0.0800000000001 0
-5.22323029283e-14 -0.0800000000001 0
4.48355547219e-14 -0.0800000000001 0
2.30986565577e-14 -0.0800000000002 0
3.71001774479e-14 -0.0800000000001 0
3.26769672382e-14 -0.0800000000001 0
3.0490988025e-14 -0.0800000000002 0
-4.19731185882e-14 -0.0800000000002 0
-1.17531977845e-14 -0.0800000000002 0
-4.67554414588e-14 -0.0800000000001 0
-4.31019390889e-14 -0.0800000000001 0
3.02680042475e-14 -0.0800000000001 0
7.41351305381e-14 -0.0800000000002 0
-4.11952762278e-14 -0.0800000000002 0
-4.55751001948e-14 -0.0800000000001 0
-4.81096105537e-14 -0.0800000000001 0
1.76825110972e-14 -0.0800000000002 0
3.38550874859e-14 -0.0800000000002 0
-5.25125096759e-14 -0.0800000000001 0
4.06915789123e-14 -0.0800000000001 0
-3.92064579034e-15 -0.08 0
-3.35417208178e-14 -0.0800000000002 0
4.7950421463e-14 -0.0800000000001 0
-9.99057054324e-14 -0.0800000000003 0
-2.42398434768e-15 -0.0800000000002 0
4.50332689919e-14 -0.0800000000001 0
-2.0284085448e-15 -0.0800000000002 0
-3.91484495435e-14 -0.0800000000002 0
4.77213872795e-14 -0.0800000000001 0
-4.07998503181e-14 -0.0800000000002 0
5.04371966523e-14 -0.0800000000001 0
7.49328945087e-15 -0.0800000000002 0
9.68154186187e-15 -0.0800000000002 0
7.02375824553e-15 -0.0800000000002 0
1.84030617562e-14 -0.08 0
-3.5478075777e-14 -0.0800000000001 0
-2.70780192497e-14 -0.0800000000002 0
-2.03259588147e-14 -0.0800000000002 0
-1.60244967105e-13 -0.0800000000003 0
3.89178372739e-14 -0.0800000000002 0
4.38546820473e-14 -0.0800000000001 0
-4.43098952631e-14 -0.0800000000001 0
-4.80701132635e-14 -0.0800000000001 0
-1.35000101125e-14 -0.0800000000002 0
5.27831758779e-14 -0.0800000000001 0
5.36836536428e-14 -0.0800000000001 0
1.98156781138e-14 -0.0800000000001 0
2.49085760428e-14 -0.0800000000001 0
-2.24484085208e-15 -0.0800000000002 0
2.09935244274e-15 -0.0800000000002 0
2.93042846618e-14 -0.0800000000002 0
-5.3735458913e-15 -0.0800000000002 0
-1.5116233962e-14 -0.0800000000002 0
3.03318289849e-14 -0.0800000000001 0
2.40857649109e-14 -0.08 0
-3.94451260526e-14 -0.0800000000001 0
-5.87329664798e-14 -0.0800000000002 0
2.13476658545e-14 -0.0800000000001 0
-3.92073720612e-14 -0.0800000000001 0
3.91364832898e-14 -0.0800000000003 0
-3.23447574256e-14 -0.0800000000002 0
4.08283448045e-15 -0.08 0
1.63521627591e-14 -0.0800000000002 0
2.24472915349e-14 -0.0800000000002 0
-5.30281055445e-14 -0.0800000000001 0
5.26758248941e-14 -0.0800000000001 0
-4.35643161685e-14 -0.0800000000001 0
2.39512423121e-14 -0.0800000000002 0
4.22012231026e-14 -0.0800000000001 0
-2.84751562416e-14 -0.0800000000002 0
1.79252160516e-14 -0.0800000000001 0
-5.41071251612e-15 -0.0800000000002 0
-2.23011348687e-14 -0.0800000000002 0
-1.29760682496e-14 -0.0800000000002 0
5.99961660949e-15 -0.0800000000002 0
-4.44975043623e-14 -0.0800000000001 0
-2.59892076422e-14 -0.0800000000002 0
1.73907379981e-14 -0.0800000000002 0
-6.36461496296e-15 -0.0800000000002 0
-2.18535061166e-14 -0.0800000000002 0
-3.7350981886e-14 -0.0800000000002 0
-4.93807275843e-14 -0.0800000000001 0
4.91930312093e-14 -0.0800000000001 0
4.66421426122e-14 -0.0800000000001 0
1.08605275965e-14 -0.0800000000002 0
-1.66555465501e-15 -0.0800000000002 0
-3.29390436542e-14 -0.0800000000002 0
1.69496811918e-14 -0.0800000000001 0
-3.8029001167e-14 -0.0800000000001 0
-5.85476783152e-15 -0.08 0
3.55401562758e-14 -0.0800000000001 0
2.54222419237e-14 -0.0800000000001 0
2.09775653186e-15 -0.0800000000002 0
2.90336639217e-14 -0.0800000000002 0
-4.4374971572e-14 -0.0800000000001 0
3.18334393861e-14 -0.0800000000001 0
-4.68132589294e-14 -0.0800000000001 0
3.5850516125e-14 -0.08 0
2.20773597775e-14 -0.0800000000002 0
-4.66545768474e-14 -0.0800000000001 0
-2.69559241372e-14 -0.0800000000002 0
1.29096957963e-14 -0.0800000000001 0
3.58820212673e-14 -0.0800000000001 0
3.55458357376e-14 -0.0800000000002 0
2.78224443967e-14 -0.0800000000001 0
-4.14704268158e-14 -0.0800000000001 0
2.8555140317e-14 -0.08 0
4.48635358978e-14 -0.0800000000002 0
3.59063868434e-14 -0.0800000000001 0
-4.1166273761e-14 -0.0800000000002 0
-4.64466987345e-14 -0.0800000000001 0
3.48922415955e-14 -0.0800000000001 0
-4.84803592322e-14 -0.0800000000001 0
-6.18925445024e-16 -0.0800000000002 0
4.28311822701e-14 -0.0800000000001 0
2.57242601683e-14 -0.0800000000002 0
9.78179413286e-16 -0.0800000000002 0
-4.79368577308e-14 -0.0800000000002 0
4.73591716258e-14 -0.0800000000001 0
-4.99980270479e-14 -0.0800000000001 0
4.6840386205e-14 -0.0800000000001 0
4.24284302625e-14 -0.0800000000002 0
-4.48628547244e-14 -0.0800000000001 0
-8.38928549269e-16 -0.08 0
-5.08369658079e-14 -0.0800000000001 0
4.18540922578e-14 -0.0800000000001 0
-6.610235398e-15 -0.0800000000002 0
-5.03979644669e-14 -0.0800000000001 0
5.34600311412e-14 -0.0800000000001 0
-9.27561248284e-15 -0.0800000000002 0
-1.86863683089e-14 -0.0800000000002 0
-5.45612588761e-14 -0.0800000000001 0
-4.50787099968e-14 -0.0800000000001 0
-4.0081560869e-14 -0.0800000000003 0
3.36224436475e-14 -0.0800000000001 0
2.33367059155e-14 -0.0800000000002 0
4.40374623142e-14 -0.0800000000001 0
1.59412442483e-14 -0.0800000000002 0
1.83977108815e-14 -0.08 0
-3.65437765049e-14 -0.0800000000001 0