# vtk DataFile Version 2.0
Generated with Solid Solver
ASCII
DATASET UNSTRUCTURED_GRID
POINTS 999 float 
0.2 4.309 0.0
1.4 4.309 0.0
1.4 4.809 0.0
0.2 4.809 0.0
1.4 4.32923264049 0.0
1.4 4.35151203886 0.0
1.4 4.37604525371 0.0
1.4 4.4030602782 0.0
1.4 4.43280817466 0.0
1.4 4.46556541084 0.0
1.4 4.50163640748 0.0
1.4 4.5413564007 0.0
1.4 4.58509451608 0.0
1.4 4.63325723872 0.0
1.4 4.68629217343 0.0
1.4 4.74469218095 0.0
1.33333333333 4.809 0.0
1.26666666667 4.809 0.0
1.2 4.809 0.0
1.13333333333 4.809 0.0
1.06666666667 4.809 0.0
1.0 4.809 0.0
0.933333333334 4.809 0.0
0.866666666668 4.809 0.0
0.800000000001 4.809 0.0
0.733333333334 4.809 0.0
0.666666666668 4.809 0.0
0.600000000001 4.809 0.0
0.533333333334 4.809 0.0
0.466666666667 4.809 0.0
0.4 4.809 0.0
0.333333333334 4.809 0.0
0.266666666667 4.809 0.0
0.2 4.74469218095 0.0
0.2 4.68629217343 0.0
0.2 4.63325723872 0.0
0.2 4.58509451608 0.0
0.2 4.5413564007 0.0
0.2 4.50163640748 0.0
0.2 4.46556541084 0.0
0.2 4.43280817466 0.0
0.2 4.4030602782 0.0
0.2 4.37604525371 0.0
0.2 4.35151203886 0.0
0.2 4.32923264049 0.0
0.212131543907 4.29326329506 0.0
0.224675715302 4.27785348652 0.0
0.23762369102 4.26278141198 0.0
0.250966423879 4.24805760374 0.0
0.264694484585 4.23369246611 0.0
0.278798324214 4.21969599189 0.0
0.293267939266 4.20607810803 0.0
0.308093289028 4.19284826442 0.0
0.323263842145 4.18001585877 0.0
0.338769084145 4.16758978512 0.0
0.354597997314 4.15557887342 0.0
0.37073960121 4.14399145532 0.0
0.387182441982 4.13283575334 0.0
0.403915091795 4.12211952025 0.0
0.420925712897 4.11185033813 0.0
0.438202430937 4.10203537461 0.0
0.455733079095 4.09268154223 0.0
0.473505374364 4.08379539439 0.0
0.491506842655 4.07538316882 0.0
0.509724826085 4.0674507802 0.0
0.528146580414 4.06000377808 0.0
0.546759103951 4.05304741762 0.0
0.56554943677 4.04658654322 0.0
0.584504260001 4.04062573401 0.0
0.60361041518 4.0351691282 0.0
0.622854334779 4.03022060039 0.0
0.642222678753 4.02578358113 0.0
0.661701681839 4.02186122392 0.0
0.681277836375 4.01845624851 0.0
0.700937245817 4.01557107217 0.0
0.720666255912 4.01320769845 0.0
0.740450894784 4.01136780161 0.0
0.76027736978 4.01005266363 0.0
0.780131702711 4.00926321235 0.0
0.799999999998 4.009 0.0
0.819868297285 4.00926321235 0.0
0.839722630216 4.01005266363 0.0
0.859549105212 4.01136780161 0.0
0.879333744085 4.01320769845 0.0
0.89906275418 4.01557107217 0.0
0.918722163621 4.01845624851 0.0
0.938298318157 4.02186122392 0.0
0.957777321244 4.02578358113 0.0
0.977145665218 4.03022060039 0.0
0.996389584817 4.0351691282 0.0
1.01549574 4.04062573401 0.0
1.03445056323 4.04658654322 0.0
1.05324089605 4.05304741762 0.0
1.07185341958 4.06000377808 0.0
1.09027517391 4.0674507802 0.0
1.10849315734 4.07538316882 0.0
1.12649462563 4.08379539439 0.0
1.1442669209 4.09268154222 0.0
1.16179756906 4.1020353746 0.0
1.1790742871 4.11185033813 0.0
1.1960849082 4.12211952024 0.0
1.21281755802 4.13283575334 0.0
1.22926039879 4.14399145532 0.0
1.24540200269 4.15557887342 0.0
1.26123091585 4.16758978512 0.0
1.27673615785 4.18001585877 0.0
1.29190671097 4.19284826442 0.0
1.30673206073 4.20607810803 0.0
1.32120167579 4.21969599189 0.0
1.33530551541 4.23369246611 0.0
1.34903357612 4.24805760374 0.0
1.36237630898 4.26278141198 0.0
1.3753242847 4.27785348652 0.0
1.38786845609 4.29326329506 0.0
1.05632730172 4.44425283906 0.0
0.549964048968 4.4470053958 0.0
0.806135520676 4.29586690218 0.0
0.60389578305 4.24479310371 0.0
1.22984770884 4.36718704125 0.0
0.3703382852 4.36823552752 0.0
0.995322815839 4.23965031136 0.0
0.728315816804 4.1605935937 0.0
0.872128173905 4.15688724072 0.0
1.14059401893 4.25698468684 0.0
0.461553191009 4.25581671009 0.0
0.784706775856 4.55221390922 0.0
0.398287125272 4.56345970538 0.0
1.20625306554 4.56734743514 0.0
0.624100842742 4.1429824436 0.0
0.5257453845 4.17211776279 0.0
0.978502430793 4.13888737058 0.0
1.07419209812 4.17225154482 0.0
0.364313698077 4.27077035763 0.0
1.23509538257 4.27081716733 0.0
0.68124123937 4.37684548972 0.0
1.31679378691 4.33412066749 0.0
0.283206213094 4.33412066749 0.0
0.791498533126 4.09867141721 0.0
0.931481076052 4.3641344917 0.0
0.96671906557 4.61178042839 0.0
0.684451667517 4.09468036752 0.0
0.618335406951 4.61086910993 0.0
0.450982331762 4.18086171732 0.0
0.915674266355 4.09395633851 0.0
1.14900051594 4.18089012964 0.0
1.30193709687 4.4321448133 0.0
0.29857466761 4.43216296922 0.0
1.05734787542 4.33390107617 0.0
0.539273225177 4.33652599628 0.0
0.709896798149 4.26121026287 0.0
0.895708916005 4.25324194389 0.0
0.813273511364 4.42235766235 0.0
0.559289631452 4.11630879113 0.0
1.04001407307 4.11681539633 0.0
0.801161810585 4.21546244955 0.0
0.665113819616 4.50456650186 0.0
0.852577362173 4.07511846388 0.0
0.39025672787 4.2082806298 0.0
1.20974450479 4.20828104599 0.0
0.921542541183 4.51178058719 0.0
1.14030889032 4.34837344809 0.0
1.15600477272 4.45208538305 0.0
0.435243219029 4.4590581257 0.0
0.462045157798 4.35054654286 0.0
0.735806812738 4.06872269746 0.0
1.30082934537 4.28193772796 0.0
0.299170654625 4.28193772796 0.0
0.533651712118 4.24665983853 0.0
0.666130919144 4.20052131559 0.0
1.0676097303 4.24579469382 0.0
1.08054433577 4.56930946155 0.0
0.506773767255 4.54968295079 0.0
0.626745312844 4.08524420826 0.0
0.933845304214 4.1946954732 0.0
0.293717639664 4.53575000185 0.0
0.31250502208 4.64826411351 0.0
1.3058164124 4.53554930624 0.0
1.29054387065 4.64702765963 0.0
0.973467966326 4.08341619478 0.0
0.487935413164 4.13487084015 0.0
0.461549079751 4.67236834982 0.0
1.11203248746 4.13493503889 0.0
1.14453515393 4.69017370303 0.0
0.840217564202 4.67291146633 0.0
0.585347033288 4.18939048534 0.0
0.619177396637 4.32627576306 0.0
0.331644410315 4.23362190462 0.0
1.26835558968 4.23362190462 0.0
1.01536156978 4.18387473052 0.0
0.809331033562 4.05465709122 0.0
0.982321540791 4.31837358971 0.0
0.725600576914 4.65399651799 0.0
0.812291456186 4.15042942492 0.0
0.335887692543 4.32318235669 0.0
1.26344844681 4.32417131907 0.0
1.23449730504 4.47857441524 0.0
1.34334172095 4.38939551957 0.0
0.256658279045 4.38939551957 0.0
0.741646926828 4.32687908527 0.0
0.674799084703 4.15073768522 0.0
1.18647435526 4.29355189749 0.0
0.360563250284 4.47996479569 0.0
0.873716483853 4.32245499203 0.0
0.418704489949 4.29546264283 0.0
0.492670911224 4.21331614809 0.0
0.403480880356 4.17446776931 0.0
1.19651541215 4.1744686246 0.0
0.728649253738 4.44614546491 0.0
1.00883674467 4.38574664879 0.0
1.11035034557 4.21561841276 0.0
0.261968539765 4.2970079512 0.0
1.33803146023 4.2970079512 0.0
0.74649980488 4.1158354354 0.0
0.927597725248 4.1417597079 0.0
0.892956618256 4.06019338913 0.0
0.659794281787 4.06351387326 0.0
0.587663534405 4.07886537006 0.0
0.942353209926 4.06335300973 0.0
1.01493747319 4.07876013719 0.0
0.613130017774 4.39769803882 0.0
0.449373501074 4.13777191978 0.0
0.514840228377 4.10625850006 0.0
0.497057592 4.39733092106 0.0
1.15061382426 4.13779293084 0.0
1.08514419473 4.10628328152 0.0
0.745617635771 4.21498957592 0.0
0.875234522129 4.58253036549 0.0
0.855262884783 4.2098970831 0.0
1.01126200032 4.51680064162 0.0
1.09391916408 4.39032408872 0.0
1.04436265455 4.69882000827 0.0
0.314320181089 4.37173968607 0.0
1.28649331902 4.37143720145 0.0
0.771211579291 4.04716862024 0.0
0.432259099658 4.22406002157 0.0
0.698583889427 4.05544353526 0.0
1.16802128371 4.222862881 0.0
1.09587629216 4.2926676659 0.0
1.35920470355 4.34066960471 0.0
0.240795296449 4.34066960471 0.0
0.504003580654 4.29215758118 0.0
0.579942709371 4.5182075073 0.0
0.875915224914 4.11215792528 0.0
0.426503136644 4.39117733008 0.0
0.57541416445 4.28765301522 0.0
0.683877978289 4.31561848113 0.0
0.888061695889 4.43033509246 0.0
0.26012287522 4.48259249103 0.0
1.33987712478 4.48259249103 0.0
0.801393572636 4.35460096582 0.0
0.558460082533 4.70896728209 0.0
1.1741923373 4.39532830101 0.0
0.83220012886 4.11179415912 0.0
1.02815069622 4.28453276509 0.0
0.948308583502 4.2720204454 0.0
0.846588933095 4.49234596945 0.0
1.25632767671 4.41880360053 0.0
0.343666800815 4.41885820652 0.0
0.97849585731 4.45431535602 0.0
1.10170977548 4.49907265998 0.0
0.662193131828 4.25209398492 0.0
0.400503668388 4.25281657105 0.0
1.20117145985 4.24530427377 0.0
0.350957892513 4.20196558019 0.0
1.24904210749 4.20196558019 0.0
0.771964652188 4.17305379403 0.0
0.932165148285 4.71136281402 0.0
0.373672364094 4.71721357765 0.0
0.760245937722 4.26809350779 0.0
0.848718469252 4.04167763075 0.0
1.23385612561 4.7198294747 0.0
0.846421485813 4.26465918421 0.0
0.651597058631 4.11443284014 0.0
0.650489852552 4.70538045504 0.0
0.58457834847 4.14775088261 0.0
0.48701309933 4.17259927013 0.0
0.708495738406 4.57256947756 0.0
1.11203398596 4.17278062515 0.0
0.54865558244 4.08650047869 0.0
1.05126102377 4.08634629471 0.0
0.300013757486 4.24659646442 0.0
1.29998624251 4.24659646442 0.0
0.9465032388 4.11118070354 0.0
0.708587583337 4.12546095907 0.0
0.973348904468 4.17937871864 0.0
0.628721855632 4.17938356945 0.0
0.380175010018 4.32421880077 0.0
0.662092932411 4.44299041267 0.0
1.05133526787 4.20621992007 0.0
0.528087045766 4.62727882187 0.0
1.22233124543 4.31921693908 0.0
1.19001193434 4.34673586668 0.0
0.853024099244 4.37944003492 0.0
0.542800296246 4.20724366905 0.0
0.247706318737 4.43639119247 0.0
1.35229368126 4.43639119247 0.0
0.599153768578 4.11353797005 0.0
1.01616570494 4.14627683178 0.0
0.744705786938 4.38969544575 0.0
1.31929001115 4.72102550052 0.0
0.777615355331 4.13513602511 0.0
0.265621610877 4.59375488866 0.0
1.33132411895 4.59031378639 0.0
0.532023338888 4.13774454388 0.0
1.0697792195 4.13641429251 0.0
0.286371037106 4.71410312914 0.0
0.497725885905 4.48553668256 0.0
0.46053455822 4.29987947599 0.0
0.433799237968 4.53029400991 0.0
0.388624781906 4.63494200004 0.0
0.554823673752 4.38851940232 0.0
1.1421595646 4.30218301431 0.0
1.14760043966 4.60055103139 0.0
1.21258698805 4.63720200685 0.0
1.16279096046 4.51692621409 0.0
0.995762647814 4.10908772517 0.0
0.456229040627 4.59856685246 0.0
0.707289391156 4.19920271873 0.0
0.763036833302 4.72685445535 0.0
0.78386198569 4.48187013126 0.0
[...]
POINT_DATA 999
VECTORS Displacement float
-4.33834636237e-14 -0.0320000000001 0
3.14451084336e-14 -0.032 0
0.0 -0.032 0
0.0 -0.032 0
2.82258257143e-14 -0.032 0
2.5056495878e-14 -0.032 0
2.17930037787e-14 -0.032 0
1.82799409719e-14 -0.032 0
1.45913173842e-14 -0.032 0
1.05619811458e-14 -0.032 0
6.29896554441e-15 -0.032 0
1.85581636915e-15 -0.032 0
-2.573603851e-15 -0.032 0
-6.27601643047e-15 -0.032 0
-8.28221358399e-15 -0.032 0
-7.11442311034e-15 -0.032 0
0.0 -0.032 0
0.0 -0.032 0
0.0 -0.032 0
0.0 -0.032 0
0.0 -0.032 0
0.0 -0.032 0
0.0 -0.032 0
0.0 -0.032 0
0.0 -0.032 0
0.0 -0.032 0
0.0 -0.032 0
0.0 -0.032 0
0.0 -0.032 0
0.0 -0.032 0
0.0 -0.032 0
0.0 -0.032 0
0.0 -0.032 0
3.22736934264e-15 -0.032 0
-7.71704354954e-16 -0.032 0
-6.84708837564e-15 -0.032 0
-1.36686198222e-14 -0.032 0
-1.9771253348e-14 -0.032 0
-2.46580045391e-14 -0.0320000000001 0
-2.86217507506e-14 -0.0320000000001 0
-3.17825791365e-14 -0.0320000000001 0
-3.44569441624e-14 -0.0320000000001 0
-3.67874465616e-14 -0.0320000000001 0
-3.88375810196e-14 -0.0320000000001 0
-4.09430396604e-14 -0.0320000000001 0
-4.54653870214e-14 -0.0320000000001 0
-4.75659896356e-14 -0.0320000000001 0
-4.94555396617e-14 -0.0320000000001 0
-5.11546344189e-14 -0.0320000000001 0
-5.26528777128e-14 -0.0320000000001 0
-5.38454976077e-14 -0.0320000000001 0
-5.4800640912e-14 -0.0320000000001 0
-5.54777138265e-14 -0.0320000000001 0
-5.58994964071e-14 -0.0320000000001 0
-5.60154669669e-14 -0.0320000000001 0
-5.58306452579e-14 -0.0320000000001 0
-5.53797877485e-14 -0.0320000000001 0
-5.46194292046e-14 -0.0320000000001 0
-5.35879838605e-14 -0.0320000000001 0
-5.22722095688e-14 -0.0320000000001 0
-5.0710121107e-14 -0.0320000000001 0
-4.88682017271e-14 -0.0320000000001 0
-4.67902847935e-14 -0.0320000000001 0
-4.44452961391e-14 -0.0320000000001 0
-4.1889615353e-14 -0.0320000000002 0
-3.91028623304e-14 -0.0320000000002 0
-3.61221089644e-14 -0.0320000000002 0
-3.29524073054e-14 -0.0320000000002 0
-2.96209706642e-14 -0.0320000000002 0
-2.61311841723e-14 -0.0320000000002 0
-2.25132482266e-14 -0.0320000000002 0
-1.87793335088e-14 -0.0320000000002 0
-1.49611757021e-14 -0.0320000000002 0
-1.10657275843e-14 -0.0320000000002 0
-7.11633651847e-15 -0.0320000000002 0
-3.12895587342e-15 -0.0320000000002 0
8.75612080948e-16 -0.0320000000002 0
4.87953133314e-15 -0.0320000000002 0
8.83718546532e-15 -0.0320000000002 0
1.27607906355e-14 -0.0320000000002 0
1.66222083199e-14 -0.0320000000002 0
2.03779229443e-14 -0.0320000000002 0
2.40422772873e-14 -0.0320000000002 0
2.75857846047e-14 -0.0320000000002 0
3.09858303605e-14 -0.0320000000002 0
3.42336089291e-14 -0.0320000000002 0
3.73045423923e-14 -0.0320000000002 0
4.01833540212e-14 -0.0320000000002 0
4.28868272493e-14 -0.0320000000001 0
4.53581087345e-14 -0.0320000000001 0
4.7615192643e-14 -0.0320000000001 0
4.96284814937e-14 -0.0320000000001 0
5.14235389495e-14 -0.0320000000001 0
5.29491585236e-14 -0.0320000000001 0
5.4246313691e-14 -0.0320000000001 0
5.52657546526e-14 -0.0320000000001 0
5.60543075568e-14 -0.0320000000001 0
5.65513790696e-14 -0.0320000000001 0
5.68151113291e-14 -0.0320000000001 0
5.67963092441e-14 -0.0320000000001 0
5.65598604138e-14 -0.0320000000001 0
5.60610687045e-14 -0.0320000000001 0
5.53281427601e-14 -0.0320000000001 0
5.43317877692e-14 -0.0320000000001 0
5.31354705126e-14 -0.0320000000001 0
5.17080230282e-14 -0.0320000000001 0
5.00461387625e-14 -0.0320000000001 0
4.82164170491e-14 -0.0320000000001 0
4.62115902643e-14 -0.0320000000001 0
4.40567531306e-14 -0.0320000000001 0
4.17114675622e-14 -0.0320000000001 0
3.92598520521e-14 -0.032 0
3.67145352592e-14 -0.032 0
3.40644964578e-14 -0.032 0
3.37687473984e-14 -0.0320000000001 0
-5.45633480316e-14 -0.0320000000002 0
4.22632963979e-15 -0.0320000000002 0
-3.25147702276e-14 -0.0320000000002 0
2.76744648978e-14 -0.0320000000001 0
-4.44515730743e-14 -0.0320000000001 0
3.26895162555e-14 -0.0320000000002 0
-7.76074171138e-15 -0.0320000000002 0
1.83529310868e-14 -0.0320000000002 0
3.88946263171e-14 -0.0320000000001 0
-4.57717704124e-14 -0.0320000000001 0
4.26601891185e-15 -0.0320000000003 0
-3.53225317635e-14 -0.0320000000001 0
8.85056587191e-15 -0.032 0
-2.52689399783e-14 -0.0320000000002 0
-3.96191475084e-14 -0.0320000000002 0
3.46756290153e-14 -0.0320000000002 0
4.22239284469e-14 -0.0320000000001 0
-4.78276109137e-14 -0.0320000000001 0
3.79670932677e-14 -0.0320000000001 0
-2.97821938822e-14 -0.0320000000002 0
2.87950367526e-14 -0.0320000000001 0
-4.27071180376e-14 -0.0320000000001 0
6.41743307271e-15 -0.0320000000002 0
2.92139813808e-14 -0.0320000000002 0
4.54184886443e-14 -0.0320000000001 0
-1.32308151869e-14 -0.0320000000002 0
-8.86757863259e-14 -0.0320000000002 0
-4.69451063764e-14 -0.0320000000001 0
2.82400926939e-14 -0.0320000000002 0
4.61780337207e-14 -0.0320000000001 0
1.75750341433e-14 -0.032 0
-3.70078292085e-14 -0.0320000000001 0
3.45507724364e-14 -0.0320000000001 0
-4.50588115087e-14 -0.0320000000002 0
-1.54971823519e-14 -0.0320000000002 0
2.06994238873e-14 -0.0320000000002 0
9.00300261679e-15 -0.0320000000002 0
-3.45242375502e-14 -0.0320000000002 0
4.34689516986e-14 -0.0320000000001 0
4.23363515235e-15 -0.0320000000002 0
-5.55071851021e-14 -0.0320000000002 0
1.86780308098e-14 -0.0320000000002 0
-5.00909879957e-14 -0.0320000000001 0
4.53424588049e-14 -0.0320000000001 0
4.55356898189e-14 -0.0320000000002 0
3.26571490421e-14 -0.0320000000001 0
2.47289364905e-14 -0.0320000000001 0
-4.71933750072e-14 -0.0320000000001 0
-4.73025727693e-14 -0.0320000000001 0
-2.68565872297e-15 -0.0320000000002 0
3.61416833631e-14 -0.0320000000001 0
-4.70811379346e-14 -0.0320000000001 0
-4.06141012073e-14 -0.0320000000002 0
-2.05979160904e-14 -0.0320000000002 0
3.73294092845e-14 -0.0320000000001 0
2.39789289332e-14 -0.0320000000001 0
-5.62744526341e-14 -0.0320000000001 0
-2.3138749131e-14 -0.0320000000002 0
2.67142594699e-14 -0.0320000000002 0
-2.68429705243e-14 -0.0320000000001 0
-1.26631549952e-14 -0.032 0
5.84983369038e-15 -0.032 0
-3.41008466498e-15 -0.032 0
3.76590720409e-14 -0.0320000000002 0
-4.39609552577e-14 -0.0320000000002 0
-2.84817804272e-14 -0.0320000000001 0
4.86100315011e-14 -0.0320000000001 0
-3.66294509471e-16 -0.032 0
8.69974090069e-14 -0.0320000000003 0
-3.26207421069e-14 -0.0320000000002 0
-3.62599373905e-14 -0.0320000000002 0
-5.07471788629e-14 -0.0320000000001 0
4.30615126589e-14 -0.0320000000001 0
3.64532309725e-14 -0.0320000000001 0
1.18870353907e-14 -0.0320000000002 0
3.1752679933e-14 -0.0320000000002 0
-8.79556283643e-14 -0.0320000000004 0
8.13751165178e-15 -0.0320000000002 0
-4.49139076385e-14 -0.0320000000001 0
3.12238289063e-14 -0.0320000000001 0
1.61567931982e-14 -0.0320000000001 0
2.12431718641e-14 -0.032 0
-3.78320440791e-14 -0.0320000000001 0
-1.16135574209e-14 -0.0320000000002 0
-1.70119442635e-14 -0.0320000000002 0
3.58898887409e-14 -0.0320000000001 0
-3.84860851287e-14 -0.0320000000001 0
1.84918565356e-14 -0.0320000000002 0
-4.67869522904e-14 -0.0320000000001 0
-4.33714035016e-14 -0.0320000000002 0
-5.08811469389e-14 -0.0320000000001 0
4.92247262541e-14 -0.0320000000001 0
-2.36188577837e-14 -0.0320000000003 0
3.45917153811e-14 -0.0320000000001 0
4.11452912767e-14 -0.0320000000001 0
-4.53303637931e-14 -0.0320000000001 0
3.36455092637e-14 -0.0320000000001 0
-2.65490633148e-15 -0.0320000000002 0
2.75873251955e-14 -0.0320000000002 0
2.66213227609e-14 -0.0320000000002 0
-1.6642406242e-14 -0.0320000000002 0
-2.96114442914e-14 -0.0320000000002 0
3.45255972077e-14 -0.0320000000002 0
4.37672472475e-14 -0.0320000000001 0
-4.49457470065e-14 -0.0320000000002 0
-4.81726009678e-14 -0.0320000000001 0
-4.07846662823e-14 -0.0320000000002 0
-4.97402965528e-14 -0.0320000000001 0
5.12208357017e-14 -0.0320000000001 0
4.92276820731e-14 -0.0320000000001 0
-6.4901542921e-15 -0.0320000000002 0
5.71021993161e-14 -0.0320000000003 0
1.42310189909e-14 -0.0320000000002 0
3.75215932467e-14 -0.0320000000001 0
3.25581996549e-14 -0.0320000000001 0
6.44283921592e-15 -0.032 0
-4.1628008951e-14 -0.0320000000001 0
2.50861898927e-14 -0.0320000000001 0
5.06608249686e-15 -0.0320000000002 0
-4.73977679212e-14 -0.0320000000001 0
-9.15438839521e-15 -0.0320000000002 0
4.2559009171e-14 -0.0320000000001 0
3.61272632128e-14 -0.0320000000001 0
2.70751117272e-14 -0.032 0
-4.08112322175e-14 -0.0320000000001 0
-4.45089771523e-14 -0.0320000000002 0
-6.34000886658e-14 -0.0320000000002 0
2.07903191947e-14 -0.0320000000002 0
-4.67681447634e-14 -0.0320000000001 0
-3.86797395285e-14 -0.0320000000002 0
-2.39625516942e-14 -0.0320000000002 0
2.95576377874e-14 -0.0320000000002 0
-3.03088043977e-14 -0.0320000000001 0
1.03775569178e-14 -0.032 0
3.30316213759e-15 -0.0320000000002 0
-4.56083754689e-14 -0.0320000000001 0
2.79320413884e-14 -0.0320000000001 0
1.32100599304e-14 -0.0320000000002 0
3.43083709249e-14 -0.0320000000001 0
2.78093454979e-14 -0.0320000000002 0
2.88984760878e-14 -0.0320000000003 0
2.11398670955e-14 -0.0320000000001 0
-4.08459400931e-14 -0.0320000000001 0
3.81713734518e-14 -0.0320000000002 0
2.68244453852e-14 -0.0320000000001 0
-2.38728529549e-14 -0.0320000000002 0
-4.79594489251e-14 -0.0320000000001 0
4.07713655315e-14 -0.0320000000001 0
-5.24487894553e-14 -0.0320000000001 0
4.73118063689e-14 -0.0320000000001 0
-6.76130288445e-17 -0.0320000000002 0
3.46551322507e-14 -0.0320000000001 0
-7.35542462861e-15 -0.032 0
-5.36900811991e-15 -0.0320000000002 0
1.99646171067e-14 -0.0320000000002 0
-4.28898888997e-15 -0.032 0
1.23490463135e-14 -0.0320000000002 0
-1.97415011999e-14 -0.0320000000002 0
-1.07105036355e-13 -0.0320000000002 0
-3.14534784989e-14 -0.0320000000002 0
-4.37523568922e-14 -0.0320000000002 0
-5.70377883649e-14 -0.0320000000003 0
4.4864749557e-14 -0.0320000000001 0
-3.5898546474e-14 -0.0320000000002 0
4.75945627965e-14 -0.0320000000001 0
-5.03386962464e-14 -0.0320000000001 0
4.14564538079e-14 -0.0320000000001 0
3.19056727701e-14 -0.0320000000002 0
-9.97654334787e-15 -0.0320000000002 0
3.21595107443e-14 -0.0320000000002 0
-2.58805916834e-14 -0.0320000000002 0
-4.5956908575e-14 -0.0320000000001 0
-4.31061088683e-14 -0.0320000000002 0
3.83026753079e-14 -0.0320000000001 0
-5.8085509993e-14 -0.0320000000001 0
3.27447655354e-14 -0.0320000000001 0
3.11444554166e-14 -0.0320000000001 0
1.71855462837e-14 -0.0320000000002 0
-3.84351040933e-14 -0.0320000000002 0
-3.37660267675e-14 -0.0320000000001 0
1.53230373518e-14 -0.032 0
-2.83986238113e-14 -0.0320000000002 0
3.86740938273e-14 -0.0320000000001 0
-1.36145275648e-14 -0.0320000000002 0
-5.75706566065e-15 -0.032 0
2.33325040605e-15 -0.0320000000002 0
-1.67757489806e-14 -0.032 0
-7.63852760017e-16 -0.032 0
-3.85241949517e-14 -0.0320000000002 0
4.47951635902e-14 -0.0320000000001 0
-2.72576906925e-15 -0.032 0
-5.38169386065e-14 -0.0320000000001 0
-4.62660450712e-14 -0.0320000000001 0
-4.41561832835e-14 -0.0320000000001 0
-2.32935627026e-14 -0.0320000000001 0
-4.86025643565e-14 -0.0320000000002 0
3.56270267408e-14 -0.0320000000001 0
1.04733563487e-14 -0.0320000000001 0
1.02242285833e-15 -0.032 0
1.83841212276e-14 -0.0320000000001 0
3.87837345015e-14 -0.0320000000001 0
-4.16380957064e-14 -0.0320000000001 0
-1.31650256019e-14 -0.0320000000002 0
-4.24633100734e-14 -0.032000000001 0
5.84947663218e-16 -0.0320000000003 0
2.60925692133e-14 -0.0320000000002 0
-5.07654816667e-14 -0.0320000000001 0
2.07497973383e-14 -0.0320000000002 0
5.20655183509e-14 -0.0320000000001 0
1.26866488387e-14 -0.032 0
-1.98257848209e-15 -0.0320000000002 0
-4.82149648757e-14 -0.0320000000001 0
3.82427854397e-14 -0.0320000000001 0
-5.27753557024e-14 -0.0320000000001 0
4.99312013497e-14 -0.0320000000001 0
-5.44054846268e-14 -0.0320000000002 0
-4.63725827883e-14 -0.0320000000001 0
2.6116759846e-15 -0.0320000000002 0
-4.13752328501e-14 -0.0320000000003 0
-4.95996967631e-14 -0.0320000000001 0
4.2191118423e-14 -0.0320000000001 0
-3.46118475386e-14 -0.0320000000001 0
2.22868861851e-14 -0.0320000000001 0
2.85371909502e-14 -0.0320000000002 0
-4.84105177807e-14 -0.0320000000001 0
3.81718879002e-14 -0.0320000000001 0
1.22720674059e-14 -0.0320000000001 0
-4.40114285498e-14 -0.0320000000001 0
-4.29942289433e-14 -0.0320000000001 0
3.05833439067e-14 -0.032 0
-2.35447538233e-14 -0.0320000000002 0
1.20773015417e-14 -0.0320000000002 0
2.80279536606e-15 -0.032 0
-2.40838408967e-14 -0.0320000000001 0
-4.36199029778e-14 -0.0320000000002 0
-7.805428964e-15 -0.0320000000002 0
3.93208759214e-15 -0.0320000000002 0
1.26815506616e-14 -0.0320000000002 0
3.41901009288e-14 -0.0320000000001 0
3.86078484087e-14 -0.0320000000001 0
-3.09746247664e-14 -0.0320000000002 0
3.12943049806e-14 -0.0320000000002 0
4.00617884309e-14 -0.0320000000001 0
2.90602160455e-14 -0.0320000000001 0
-4.44784755132e-14 -0.0320000000001 0
3.13774560222e-14 -0.0320000000001 0
4.88111290474e-14 -0.0320000000002 0
-4.6659521044e-14 -0.0320000000002 0
-3.57568039012e-14 -0.0320000000002 0
4.05423735549e-14 -0.0320000000001 0
-7.21943990507e-14 -0.0320000000002 0
2.08283071165e-14 -0.0320000000005 0
-4.5543777062e-14 -0.0320000000001 0
5.17672035708e-14 -0.0320000000001 0
-4.57580903811e-14 -0.0320000000001 0
4.26923516386e-14 -0.0320000000001 0
-2.50863201198e-14 -0.0320000000001 0
5.21009866036e-15 -0.032 0
-2.84238617833e-14 -0.0320000000002 0
3.53074179395e-14 -0.0320000000001 0
-3.59760870505e-14 -0.0320000000002 0
3.39335988093e-14 -0.0320000000001 0
2.43792165167e-14 -0.0320000000002 0
3.3999500675e-14 -0.0320000000002 0
2.34522459633e-14 -0.032 0
-3.84636385174e-14 -0.0320000000001 0
-4.88210365288e-14 -0.0320000000001 0
2.32853080886e-14 -0.0320000000002 0
4.64764864431e-14 -0.0320000000001 0
-1.8089406235e-14 -0.0320000000002 0
6.51174885297e-14 -0.0320000000002 0
-2.93168729762e-15 -0.032 0
3.42022871992e-14 -0.0320000000001 0
-4.29059508205e-14 -0.0320000000002 0
2.43069857953e-14 -0.0320000000001 0
-4.03226806303e-14 -0.0320000000001 0
9.5648163685e-15 -0.032 0
-3.33634773239e-14 -0.0320000000001 0
2.50910459218e-14 -0.0320000000002 0
3.82725810652e-14 -0.0320000000001 0
-1.29723453619e-14 -0.0320000000002 0
1.01552076819e-14 -0.0320000000002 0
1.41411796594e-14 -0.0320000000002 0
-4.92070251498e-14 -0.0320000000001 0
-4.70691210708e-14 -0.0320000000001 0
-5.29007973727e-14 -0.0320000000001 0
4.67797930993e-14 -0.0320000000001 0
1.06667132898e-14 -0.0320000000002 0
2.32453272377e-14 -0.0320000000002 0
1.60821614913e-14 -0.0320000000002 0
-6.14894520978e-15 -0.032 0
-4.63545181233e-14 -0.0320000000001 0
3.44534783617e-14 -0.0320000000001 0
3.33908642756e-14 -0.0320000000001 0
-9.23633182209e-15 -0.032 0
-1.3011393673e-14 -0.032 0
3.06588152272e-14 -0.0320000000001 0
-6.75417100563e-14 -0.0320000000001 0
-2.21815787159e-14 -0.0320000000002 0
3.2422359862e-14 -0.0320000000002 0
3.58703701364e-14 -0.0320000000001 0
3.32293627584e-14 -0.0320000000002 0
3.1857317637e-14 -0.0320000000002 0
-3.67643277171e-14 -0.0320000000002 0
-4.25232047673e-14 -0.0320000000001 0
-1.8770605238e-14 -0.0320000000002 0
-2.48776289232e-14 -0.0320000000002 0
-4.31587332982e-14 -0.0320000000001 0
2.84667252536e-14 -0.0320000000001 0
-5.22366248312e-14 -0.0320000000001 0
4.48253002333e-14 -0.0320000000001 0
2.30936785178e-14 -0.0320000000002 0
3.7093305257e-14 -0.0320000000001 0
3.26741186358e-14 -0.0320000000001 0
3.04871113281e-14 -0.0320000000002 0
-4.19756895573e-14 -0.0320000000002 0
-1.1759967319e-14 -0.0320000000002 0
-4.67574094042e-14 -0.0320000000001 0
-4.31060516166e-14 -0.0320000000001 0
3.02618351858e-14 -0.0320000000001 0
7.4135381819e-14 -0.0320000000002 0
-4.12003394781e-14 -0.0320000000002 0
-4.55778423845e-14 -0.0320000000001 0
-4.81099820141e-14 -0.0320000000001 0
1.76785335992e-14 -0.0320000000002 0
3.3846522359e-14 -0.0320000000002 0
-5.25094421147e-14 -0.0320000000001 0
4.06863384179e-14 -0.0320000000001 0
-3.91918025862e-15 -0.032 0
-3.35514648392e-14 -0.0320000000002 0
4.79434371271e-14 -0.0320000000001 0
-9.99037039895e-14 -0.0320000000003 0
-2.43116415015e-15 -0.0320000000002 0
4.50254289476e-14 -0.0320000000001 0
-2.02961992025e-15 -0.0320000000002 0
-3.91554253007e-14 -0.0320000000002 0
4.77111985319e-14 -0.0320000000001 0
-4.08035314241e-14 -0.0320000000002 0
5.04303026313e-14 -0.0320000000001 0
7.48300698084e-15 -0.0320000000002 0
9.67557348947e-15 -0.0320000000002 0
7.01895188053e-15 -0.0320000000002 0
1.83993984011e-14 -0.032 0
-3.54796666777e-14 -0.0320000000001 0
-2.70825859087e-14 -0.0320000000002 0
-2.03310972648e-14 -0.0320000000002 0
-1.60247461289e-13 -0.0320000000003 0
3.89086534259e-14 -0.0320000000002 0
4.38452238897e-14 -0.0320000000001 0
-4.43159167095e-14 -0.0320000000001 0
-4.80781164245e-14 -0.0320000000001 0
-1.35031442841e-14 -0.0320000000002 0
5.27767462443e-14 -0.0320000000001 0
5.367705406e-14 -0.0320000000001 0
1.98152411495e-14 -0.0320000000001 0
2.49082533572e-14 -0.0320000000001 0
-2.25204266465e-15 -0.0320000000002 0
2.0935041021e-15 -0.0320000000002 0
2.92991020849e-14 -0.0320000000002 0
-5.38243203537e-15 -0.0320000000002 0
-1.51218132919e-14 -0.0320000000002 0
3.03240916276e-14 -0.0320000000001 0
2.40786635836e-14 -0.032 0
-3.94503414231e-14 -0.0320000000001 0
-5.87312489485e-14 -0.0320000000002 0
2.13438308533e-14 -0.0320000000001 0
-3.92124370403e-14 -0.0320000000001 0
3.91389755693e-14 -0.0320000000003 0
-3.23485053429e-14 -0.0320000000002 0
4.08243030614e-15 -0.032 0
1.63454560792e-14 -0.0320000000002 0
2.24444940548e-14 -0.0320000000002 0
-5.30293490732e-14 -0.0320000000001 0
5.26683366398e-14 -0.0320000000001 0
-4.3564979062e-14 -0.0320000000001 0
2.39475169215e-14 -0.0320000000002 0
4.21942105507e-14 -0.0320000000001 0
-2.8477762825e-14 -0.0320000000002 0
1.79225324966e-14 -0.0320000000001 0
-5.41451136149e-15 -0.0320000000002 0
-2.2305087785e-14 -0.0320000000002 0
-1.2978132497e-14 -0.0320000000002 0
5.99406135962e-15 -0.0320000000002 0
-4.45013344799e-14 -0.0320000000001 0
-2.59953227982e-14 -0.0320000000002 0
1.7383784241e-14 -0.0320000000002 0
-6.37168770213e-15 -0.0320000000002 0
-2.18604964587e-14 -0.0320000000002 0
-3.73570979768e-14 -0.0320000000002 0
-4.9381260823e-14 -0.0320000000001 0
4.91877089754e-14 -0.0320000000001 0
4.66358767554e-14 -0.0320000000001 0
1.08560463136e-14 -0.0320000000002 0
-1.6694661772e-15 -0.0320000000002 0
-3.29467038943e-14 -0.0320000000002 0
1.6950354375e-14 -0.0320000000001 0
-3.80278929924e-14 -0.0320000000001 0
-5.85643191357e-15 -0.032 0
3.55344812461e-14 -0.0320000000001 0
2.54192225341e-14 -0.0320000000001 0
2.09313744023e-15 -0.0320000000002 0
2.90257861166e-14 -0.0320000000002 0
-4.43758023003e-14 -0.0320000000001 0
3.18295981926e-14 -0.0320000000001 0
-4.6810230435e-14 -0.0320000000001 0
3.58457334246e-14 -0.032 0
2.20704550429e-14 -0.0320000000002 0
-4.66568495625e-14 -0.0320000000001 0
-2.69609659502e-14 -0.0320000000002 0
1.29080562656e-14 -0.0320000000001 0
3.58763505529e-14 -0.0320000000001 0
3.55390122693e-14 -0.0320000000002 0
2.78148425945e-14 -0.0320000000001 0
-4.14724489175e-14 -0.0320000000001 0
2.85516328942e-14 -0.032 0
4.48661442067e-14 -0.0320000000002 0
3.59007982771e-14 -0.0320000000001 0
-4.1170194028e-14 -0.0320000000002 0
-4.64487617205e-14 -0.0320000000001 0
3.48883661823e-14 -0.0320000000001 0
-4.84824716116e-14 -0.0320000000001 0
-6.23750458348e-16 -0.0320000000002 0
4.28259045294e-14 -0.0320000000001 0
2.571734058e-14 -0.0320000000002 0
9.70163388674e-16 -0.0320000000002 0
-4.79375172932e-14 -0.0320000000002 0
4.73521378923e-14 -0.0320000000001 0
-4.99992091519e-14 -0.0320000000001 0
4.68341128756e-14 -0.0320000000001 0
4.2426595652e-14 -0.0320000000002 0
-4.48661665894e-14 -0.0320000000001 0
-8.39881906701e-16 -0.032 0
-5.08386638955e-14 -0.0320000000001 0
4.18455419358e-14 -0.0320000000001 0
-6.61233141598e-15 -0.0320000000002 0
-5.04044478622e-14 -0.0320000000001 0
5.34558600251e-14 -0.0320000000001 0
-9.28072877071e-15 -0.0320000000002 0
-1.8691597277e-14 -0.0320000000002 0
-5.45625522441e-14 -0.0320000000001 0
-4.50787669779e-14 -0.0320000000001 0
-4.00809689882e-14 -0.0320000000003 0
3.36173063439e-14 -0.0320000000001 0
2.33349312235e-14 -0.0320000000002 0
4.40326479064e-14 -0.0320000000001 0
1.59340739063e-14 -0.0320000000002 0