# vtk DataFile Version 2.0
Generated with Solid Solver
ASCII
DATASET UNSTRUCTURED_GRID
POINTS 3379 float 
0.0 0.0 0.0
10.0 0.0 0.0
10.0 20.0 0.0
-20.0 20.0 0.0
-20.0 10.0 0.0
-5.0 10.0 0.0
0.0 5.0 0.0
1.11111111111 0.0 0.0
2.22222222222 0.0 0.0
3.33333333333 0.0 0.0
4.44444444444 0.0 0.0
5.55555555555 0.0 0.0
6.66666666666 0.0 0.0
7.77777777777 0.0 0.0
8.88888888889 0.0 0.0
10.0 1.17647058823 0.0
10.0 2.35294117647 0.0
10.0 3.5294117647 0.0
10.0 4.70588235293 0.0
10.0 5.88235294116 0.0
10.0 7.0588235294 0.0
10.0 8.23529411763 0.0
10.0 9.41176470587 0.0
10.0 10.5882352941 0.0
10.0 11.7647058823 0.0
10.0 12.9411764706 0.0
10.0 14.1176470588 0.0
10.0 15.2941176471 0.0
10.0 16.4705882353 0.0
10.0 17.6470588235 0.0
10.0 18.8235294118 0.0
8.8 20.0 0.0
7.6 20.0 0.0
6.39999999999 20.0 0.0
5.19999999999 20.0 0.0
4.0 20.0 0.0
2.8 20.0 0.0
1.6 20.0 0.0
0.400000000005 20.0 0.0
-0.79999999999 20.0 0.0
-1.99999999999 20.0 0.0
-3.19999999998 20.0 0.0
-4.39999999998 20.0 0.0
-5.59999999997 20.0 0.0
-6.79999999998 20.0 0.0
-7.99999999998 20.0 0.0
-9.19999999998 20.0 0.0
-10.4 20.0 0.0
-11.6 20.0 0.0
-12.8 20.0 0.0
-14.0 20.0 0.0
-15.2 20.0 0.0
-16.4 20.0 0.0
-17.6 20.0 0.0
-18.8 20.0 0.0
-20.0 18.8888888889 0.0
-20.0 17.7777777778 0.0
-20.0 16.6666666667 0.0
-20.0 15.5555555556 0.0
-20.0 14.4444444444 0.0
-20.0 13.3333333333 0.0
-20.0 12.2222222222 0.0
-20.0 11.1111111111 0.0
-18.8650027336 10.0 0.0
-17.813310278 10.0 0.0
-16.8388083846 10.0 0.0
-15.9358314798 10.0 0.0
-15.0991299341 10.0 0.0
-14.3238392211 10.0 0.0
-13.6054522927 10.0 0.0
-12.9397923214 10.0 0.0
-12.3229895186 10.0 0.0
-11.7514578516 10.0 0.0
-11.2218745847 10.0 0.0
-10.7311608998 10.0 0.0
-10.2764639398 10.0 0.0
-9.85514009809 10.0 0.0
-9.46473993718 10.0 0.0
-9.10299376652 10.0 0.0
-8.76779846999 10.0 0.0
-8.45720535465 10.0 0.0
-8.16940869126 10.0 0.0
-7.90273530971 10.0 0.0
-7.65563480469 10.0 0.0
-7.42667061625 10.0 0.0
-7.21451157725 10.0 0.0
-7.01792427638 10.0 0.0
-6.83576580446 10.0 0.0
-6.66697710929 10.0 0.0
-6.51057691162 10.0 0.0
-6.36565595492 10.0 0.0
-6.23137167006 10.0 0.0
-6.10694339793 10.0 0.0
-5.99164772416 10.0 0.0
-5.88481433485 10.0 0.0
-5.78582216167 10.0 0.0
-5.69409565458 10.0 0.0
-5.60910153833 10.0 0.0
-5.53034570218 10.0 0.0
-5.45737027246 10.0 0.0
-5.38975097877 10.0 0.0
-5.32709470476 10.0 0.0
-5.26903718838 10.0 0.0
-5.21524088515 10.0 0.0
-5.16539304215 10.0 0.0
-5.11920385255 10.0 0.0
-5.07640479059 10.0 0.0
-5.03674702257 10.0 0.0
-4.96413737767 9.99987138558 0.0
-4.92827660031 9.99948554893 0.0
-4.89241951282 9.9988425099 0.0
-4.85656795989 9.99794230157 0.0
-4.82072378593 9.99678497027 0.0
-4.78488883498 9.99537057551 0.0
-4.74906495058 9.99369919008 0.0
-4.71325397573 9.99177089995 0.0
-4.67745775275 9.98958580433 0.0
-4.64167812321 9.98714401563 0.0
-4.60591692781 9.98444565947 0.0
-4.57017600631 9.98149087467 0.0
-4.53445719745 9.97827981325 0.0
-4.49876233879 9.97481264039 0.0
-4.46309326668 9.97108953447 0.0
-4.42745181616 9.96711068703 0.0
-4.39183982081 9.96287630276 0.0
-4.35625911274 9.9583865995 0.0
-4.32071152241 9.95364180823 0.0
-4.2851988786 9.94864217305 0.0
-4.24972300828 9.94338795116 0.0
-4.21428573654 9.93787941288 0.0
-4.17888888647 9.9321168416 0.0
-4.1435342791 9.92610053378 0.0
-4.10822373326 9.91983079893 0.0
-4.07295906554 9.9133079596 0.0
-4.03774209015 9.90653235136 0.0
-4.00257461886 9.89950432279 0.0
-3.96745846088 9.89222423546 0.0
-3.9323954228 9.88469246389 0.0
-3.89738730846 9.87690939556 0.0
-3.86243591888 9.86887543087 0.0
-3.82754305215 9.86059098315 0.0
-3.79271050337 9.85205647858 0.0
-3.75794006453 9.84327235624 0.0
-3.72323352442 9.83423906803 0.0
-3.68859266854 9.82495707867 0.0
-3.65401927902 9.81542686568 0.0
-3.61951513452 9.80564891936 0.0
-3.58508201011 9.79562374274 0.0
-3.55072167726 9.78535185156 0.0
-3.51643590364 9.77483377428 0.0
-3.48222645311 9.764070052 0.0
-3.44809508561 9.75306123848 0.0
-3.41404355706 9.74180790006 0.0
-3.38007361925 9.73031061569 0.0
-3.3461870198 9.71856997686 0.0
-3.31238550203 9.70658658757 0.0
-3.27867080489 9.69436106431 0.0
-3.24504466285 9.68189403603 0.0
-3.21150880584 9.66918614412 0.0
-3.17806495913 9.65623804233 0.0
-3.14471484327 9.6430503968 0.0
-3.11146017398 9.62962388597 0.0
-3.07830266208 9.61595920058 0.0
-3.04524401337 9.60205704362 0.0
-3.01228592859 9.5879181303 0.0
-2.97943010329 9.573543188 0.0
-2.94667822776 9.55893295626 0.0
-2.91403198694 9.5440881867 0.0
-2.88149306036 9.52900964303 0.0
-2.84906312199 9.51369810098 0.0
-2.81674384022 9.49815434826 0.0
-2.78453687775 9.48237918454 0.0
-2.75244389148 9.46637342136 0.0
-2.72046653246 9.45013788218 0.0
-2.6886064458 9.43367340222 0.0
-2.65686527055 9.41698082853 0.0
-2.62524463967 9.40006101987 0.0
-2.59374617991 9.38291484668 0.0
-2.56237151172 9.36554319107 0.0
-2.53112224921 9.34794694674 0.0
-2.50000000001 9.33012701893 0.0
-2.46900636523 9.3120843244 0.0
-2.43814293936 9.29381979138 0.0
-2.40741131021 9.2753343595 0.0
-2.37681305877 9.25662897976 0.0
-2.3463497592 9.23770461447 0.0
-2.3160229787 9.2185622372 0.0
-2.28583427747 9.19920283276 0.0
-2.25578520858 9.1796273971 0.0
-2.22587731793 9.15983693729 0.0
-2.19611214416 9.13983247147 0.0
-2.16649121855 9.11961502879 0.0
-2.13701606498 9.09918564935 0.0
-2.10768819982 9.07854538415 0.0
-2.07850913186 9.05769529504 0.0
-2.04948036225 9.03663645468 0.0
-2.02060338439 9.01536994646 0.0
-1.99187968388 8.99389686444 0.0
-1.96331073843 8.97221831332 0.0
-1.9348980178 8.95033540838 0.0
-1.90664298369 8.9282492754 0.0
-1.87854708972 8.90596105061 0.0
-1.85061178129 8.88347188065 0.0
-1.82283849556 8.8607829225 0.0
-1.79522866134 8.8378953434 0.0
-1.76778369905 8.81481032082 0.0
-1.74050502061 8.7915290424 0.0
-1.7133940294 8.76805270584 0.0
-1.68645212016 8.74438251892 0.0
-1.65968067894 8.72051969936 0.0
-1.63308108301 8.69646547481 0.0
-1.60665470082 8.67222108274 0.0
-1.58040289188 8.64778777044 0.0
-1.55432700675 8.62316679489 0.0
-1.52842838691 8.59835942274 0.0
-1.50270836475 8.57336693022 0.0
-1.47716826344 8.54819060309 0.0
-1.45180939692 8.52283173657 0.0
-1.42663306979 8.49729163526 0.0
-1.40164057727 8.4715716131 0.0
-1.37683320512 8.44567299326 0.0
-1.35221222957 8.41959710813 0.0
-1.32777891727 8.39334529919 0.0
-1.30353452521 8.366918917 0.0
-1.27948030065 8.34031932107 0.0
-1.25561748109 8.31354787985 0.0
-1.23194729417 8.28660597061 0.0
-1.20847095761 8.2594949794 0.0
-1.18518967919 8.23221630096 0.0
-1.16210465661 8.20477133867 0.0
-1.13921707751 8.17716150446 0.0
-1.11652811936 8.14938821872 0.0
-1.0940389494 8.12145291029 0.0
-1.07175072461 8.09335701632 0.0
-1.04966459163 8.06510198221 0.0
-1.02778168669 8.03668926158 0.0
-1.00610313557 8.00812031613 0.0
-0.984630053552 7.97939661562 0.0
-0.963363545327 7.95051963776 0.0
-0.942304704967 7.92149086815 0.0
-0.921454615862 7.89231180019 0.0
-0.90081435066 7.86298393503 0.0
-0.880384971216 7.83350878146 0.0
-0.860167528534 7.80388785585 0.0
-0.840163062717 7.77412268208 0.0
-0.82037260291 7.74421479143 0.0
-0.800797167248 7.71416572254 0.0
-0.781437762805 7.68397702131 0.0
-0.762295385539 7.65365024081 0.0
-0.743371020246 7.62318694124 0.0
-0.724665640503 7.5925886898 0.0
-0.706180208624 7.56185706065 0.0
-0.687915675605 7.53099363478 0.0
-0.66987298108 7.5 0.0
-0.652053053269 7.4688777508 0.0
-0.634456808932 7.43762848829 0.0
-0.617085153321 7.4062538201 0.0
-0.599938980135 7.37475536034 0.0
-0.58301917147 7.34313472946 0.0
-0.566326597781 7.31139355421 0.0
-0.549862117829 7.27953346755 0.0
-0.533626578641 7.24755610853 0.0
-0.517620815469 7.21546312226 0.0
-0.50184565174 7.18325615978 0.0
-0.486301899021 7.15093687802 0.0
-0.470990356971 7.11850693965 0.0
-0.455911813304 7.08596801306 0.0
-0.441067043748 7.05332177225 0.0
-0.426456812003 7.02056989672 0.0
-0.412081869704 6.98771407142 0.0
-0.397942956381 6.95475598663 0.0
-0.384040799421 6.92169733793 0.0
-0.370376114032 6.88853982602 0.0
-0.356949603203 6.85528515674 0.0
-0.343761957671 6.82193504088 0.0
-0.330813855886 6.78849119417 0.0
-0.318105963973 6.75495533716 0.0
-0.305638935697 6.72132919512 0.0
-0.293413412437 6.68761449797 0.0
-0.281430023142 6.6538129802 0.0
-0.269689384307 6.61992638075 0.0
-0.25819209994 6.58595644295 0.0
-0.246938761526 6.55190491439 0.0
-0.235929948002 6.51777354689 0.0
-0.225166225724 6.48356409637 0.0
-0.214648148442 6.44927832275 0.0
-0.204376257265 6.41491798989 0.0
-0.194351080639 6.38048486549 0.0
-0.184573134316 6.34598072098 0.0
-0.175042921332 6.31140733146 0.0
-0.165760931974 6.27676647558 0.0
-0.156727643762 6.24205993547 0.0
-0.14794352142 6.20728949663 0.0
-0.139409016855 6.17245694785 0.0
-0.13112456913 6.13756408113 0.0
-0.123090604445 6.10261269154 0.0
-0.115307536114 6.0676045772 0.0
-0.107775764543 6.03254153912 0.0
-0.100495677209 5.99742538114 0.0
-0.093467648642 5.96225790985 0.0
-0.0866920404046 5.92704093447 0.0
-0.080169201073 5.89177626674 0.0
-0.0738994662197 5.85646572091 0.0
-0.067883158396 5.82111111353 0.0
-0.0621205871156 5.78571426346 0.0
-0.0566120488383 5.75027699172 0.0
-0.0513578269551 5.7148011214 0.0
-0.0463581917735 5.67928847759 0.0
-0.0416134005035 5.64374088726 0.0
-0.0371236972447 5.60816017919 0.0
-0.0328893129732 5.57254818384 0.0
-0.0289104655302 5.53690673332 0.0
-0.0251873596105 5.50123766122 0.0
-0.0217201867523 5.46554280255 0.0
-0.0185091253269 5.42982399369 0.0
-0.0155543405298 5.39408307219 0.0
-0.0128559843721 5.35832187679 0.0
-0.010414195673 5.32254224725 0.0
-0.00822910005203 5.28674602427 0.0
-0.00630080992318 5.25093504942 0.0
-0.00462942448881 5.21511116502 0.0
-0.00321502973463 5.17927621407 0.0
-0.00205769842527 5.14343204011 0.0
-0.00115749010052 5.10758048718 0.0
-0.000514451072299 5.07172339969 0.0
-0.000128614422241 5.03586262233 0.0
0.0 4.96210871268 0.0
0.0 4.91493291879 0.0
0.0 4.85619761383 0.0
0.0 4.78307039291 0.0
0.0 4.69202478373 0.0
0.0 4.57867022864 0.0
0.0 4.43754040407 0.0
0.0 4.26182947167 0.0
0.0 4.043064028 0.0
0.0 3.77069445193 0.0
0.0 3.43158604656 0.0
0.0 3.0093857748 0.0
[...]
POINT_DATA 3379
VECTORS Displacement float
0.0 0.0 0
0.0 0.0 0
-0.461296444977 0.104537081605 0
-0.4 -0.356285017852 0
-0.4 -0.342008686851 0
-0.270226990787 -0.215027867205 0
-0.0923538029307 -0.0781763259161 0
0.0 0.0 0
0.0 0.0 0
0.0 0.0 0
0.0 0.0 0
0.0 0.0 0
0.0 0.0 0
0.0 0.0 0
0.0 0.0 0
-0.0233222584131 0.0239967221248 0
-0.0417775692067 0.0420028059895 0
-0.0632280401188 0.0577728992574 0
-0.086640964288 0.0707673324115 0
-0.112825792444 0.0819072400543 0
-0.14130137557 0.090505264356 0
-0.170496900451 0.0968741482464 0
-0.20099500702 0.101530932613 0
-0.231220320647 0.104457129827 0
-0.261530150077 0.105968760379 0
-0.291340607895 0.106595351676 0
-0.32065437846 0.10665020093 0
-0.349382532162 0.106306602627 0
-0.377718629238 0.10578531849 0
-0.40565569469 0.105323162542 0
-0.433497053638 0.104881962376 0
-0.460941658676 0.0761392005365 0
-0.460488287206 0.0477694662141 0
-0.460004350319 0.0194924454471 0
-0.459448967932 -0.00854924944285 0
-0.458835968128 -0.036381268559 0
-0.458023567394 -0.0639826065178 0
-0.457082744592 -0.0912086088557 0
-0.455820260131 -0.118031423632 0
-0.454160303357 -0.144053218739 0
-0.451986655205 -0.169220531395 0
-0.449283052578 -0.1933782217 0
-0.446143217978 -0.215931199572 0
-0.442823157984 -0.236946740133 0
-0.439340287337 -0.256254873864 0
-0.435705037373 -0.273810982401 0
-0.431954556204 -0.289624068289 0
-0.428307910337 -0.30367565477 0
-0.424404810501 -0.315953134019 0
-0.420993917835 -0.326826864168 0
-0.417294401728 -0.33564277289 0
-0.413876715355 -0.343018666627 0
-0.410320942893 -0.348832229389 0
-0.406869004941 -0.352467980877 0
-0.403317682786 -0.355152950809 0
-0.4 -0.357125311822 0
-0.4 -0.357634974446 0
-0.4 -0.357404375846 0
-0.4 -0.356651173268 0
-0.4 -0.355051752232 0
-0.4 -0.352733891886 0
-0.4 -0.34988389128 0
-0.4 -0.3461309705 0
-0.390476523557 -0.341148848649 0
-0.381395686642 -0.339265480999 0
-0.373212850867 -0.336310576984 0
-0.365488095898 -0.332560717282 0
-0.358250971786 -0.328248509846 0
-0.351686319085 -0.323575996054 0
-0.345617534304 -0.318607861452 0
-0.33995759108 -0.313452455692 0
-0.334635911411 -0.308281689715 0
-0.329769157365 -0.303067230558 0
-0.325263939357 -0.297940049259 0
-0.32106157281 -0.292883964002 0
-0.317202035964 -0.28795480072 0
-0.313578125485 -0.283211862304 0
-0.310231297865 -0.278622737107 0
-0.307135592494 -0.274223737616 0
-0.304261140809 -0.270015754775 0
-0.301591121136 -0.266009706288 0
-0.299122382148 -0.262204286238 0
-0.296824624413 -0.2586040539 0
-0.294668387534 -0.25521857227 0
-0.292676478382 -0.252013245569 0
-0.290816643795 -0.248998756083 0
-0.289097170374 -0.246159844593 0
-0.287486545259 -0.243498261788 0
-0.285981435111 -0.241003076992 0
-0.284584812504 -0.238665010404 0
-0.283284027558 -0.236475904658 0
-0.282068710901 -0.234433550396 0
-0.280937006274 -0.232524049039 0
-0.279879240365 -0.230748121626 0
-0.278893184978 -0.229089129382 0
-0.277970262058 -0.227545261096 0
-0.277110414726 -0.226103395145 0
-0.276305178435 -0.224765340112 0
-0.275553449124 -0.223520948214 0
-0.274850143784 -0.22236284605 0
-0.274192976193 -0.221286495782 0
-0.273577510116 -0.220285028109 0
-0.273001288988 -0.219357561841 0
-0.272462267669 -0.21849419264 0
-0.2719568966 -0.217694669545 0
-0.27148329504 -0.216950267955 0
-0.271038907325 -0.216260635584 0
-0.270621329269 -0.215619830086 0
-0.269834550698 -0.21444488169 0
-0.269430314068 -0.213863998047 0
-0.269017865561 -0.213276072886 0
-0.268593831919 -0.212687060615 0
-0.26816469979 -0.212093310991 0
-0.267726846997 -0.211498950633 0
-0.267283432818 -0.210901944971 0
-0.266829312524 -0.210302141421 0
-0.266372323389 -0.209699812395 0
-0.26590773409 -0.209091665361 0
-0.265432741807 -0.208485906601 0
-0.26495436476 -0.207872639707 0
-0.264466342876 -0.207259409369 0
-0.263974802437 -0.206644847478 0
-0.263478653501 -0.206026737935 0
-0.262974005004 -0.20540572581 0
-0.262461285279 -0.204784145684 0
-0.2619453145 -0.204158244068 0
-0.26142175991 -0.203530607102 0
-0.260894659687 -0.202903972338 0
-0.260361894622 -0.20227092738 0
-0.25981962048 -0.201638043978 0
-0.259275215428 -0.200999983546 0
-0.258723270575 -0.200361778003 0
-0.258167600214 -0.199720403169 0
-0.257605114239 -0.199077966802 0
-0.257038990256 -0.198434073053 0
-0.256466026844 -0.1977883164 0
-0.255889451849 -0.197142704604 0
-0.255304716645 -0.196492753504 0
-0.254716308536 -0.195841948182 0
-0.254123682485 -0.195188621372 0
-0.253523563132 -0.194533839335 0
-0.252921906681 -0.193879021888 0
-0.252312310793 -0.193221508654 0
-0.251696431494 -0.192563097175 0
-0.251078103921 -0.191903826693 0
-0.250451842919 -0.191242012642 0
-0.249822878268 -0.1905768624 0
-0.249190590727 -0.189911505285 0
-0.248552589598 -0.189246738525 0
-0.247907059283 -0.188580543987 0
-0.247258679508 -0.187910503801 0
-0.246603277572 -0.187239869008 0
-0.245946161822 -0.186570756816 0
-0.245284977279 -0.185899132992 0
-0.24461731399 -0.185224109037 0
-0.243943466543 -0.184551289277 0
-0.24326672734 -0.183876653287 0
-0.242582865175 -0.183199906686 0
-0.241897659729 -0.182524801833 0
-0.241208516547 -0.181846986849 0
-0.240512466153 -0.181166910618 0
-0.239811400279 -0.180488208771 0
-0.239108838379 -0.179809742955 0
-0.23839886932 -0.179128988811 0
-0.237682870733 -0.178448094911 0
-0.236964811711 -0.177766853182 0
-0.236244352788 -0.177084405385 0
-0.235515919293 -0.176401882176 0
-0.234786950913 -0.175719812023 0
-0.234052037818 -0.175033315994 0
-0.233310754657 -0.174351513125 0
-0.232567100014 -0.173665438808 0
-0.231816310963 -0.172979754083 0
-0.231064217449 -0.172295544971 0
-0.230308942251 -0.171609256901 0
-0.229548203594 -0.17092264326 0
-0.228781193838 -0.170237184461 0
-0.22801327954 -0.169551811344 0
-0.227237862734 -0.168865188668 0
-0.226462313481 -0.168177381383 0
-0.225679877383 -0.167492312567 0
-0.224894921769 -0.166804373275 0
-0.224103084723 -0.166116663009 0
-0.223310283202 -0.16543062027 0
-0.22251462504 -0.164743098829 0
-0.221713906556 -0.164055824795 0
-0.220907370996 -0.163370007019 0
-0.220100644499 -0.162686041741 0
-0.219286010046 -0.162000092455 0
-0.21847193735 -0.161314025984 0
-0.21765009651 -0.160629454527 0
-0.216826443424 -0.159942509792 0
-0.215997734243 -0.159256908627 0
-0.215167109949 -0.15857236174 0
-0.214330516837 -0.157887620848 0
-0.21349335508 -0.157204576453 0
-0.212649785723 -0.156520100827 0
-0.211805619994 -0.155837271566 0
-0.210955402279 -0.155154551349 0
-0.210103442152 -0.154472749242 0
-0.209246132117 -0.153790455022 0
-0.208388000815 -0.153110222071 0
-0.207524037932 -0.152428971819 0
-0.206659100536 -0.151749135153 0
-0.205788826883 -0.151069431869 0
-0.20491710012 -0.15039165248 0
-0.204040176574 -0.149713243558 0
-0.203162845343 -0.149037038076 0
-0.202279312944 -0.148359628651 0
-0.201396299666 -0.147684575655 0
-0.200506983831 -0.147009636344 0
-0.199616938463 -0.146335679025 0
-0.198721866454 -0.145662064389 0
-0.197824790489 -0.144990766742 0
-0.196925446264 -0.144319204299 0
-0.19602290366 -0.143649497175 0
-0.195117955863 -0.142979868824 0
-0.194208471691 -0.142309077782 0
-0.193298182607 -0.141642175388 0
-0.192383056665 -0.140976387433 0
-0.191467871725 -0.140310451065 0
-0.190547660882 -0.139644585019 0
-0.189626892826 -0.138981543313 0
-0.188703539504 -0.138318309278 0
-0.187778442111 -0.137656319378 0
-0.186849125202 -0.136995976418 0
-0.185918846694 -0.136337667378 0
-0.184983413737 -0.13567821575 0
-0.184048854163 -0.135021129127 0
-0.18310959469 -0.134363727266 0
-0.182171120521 -0.133709216732 0
-0.181227737126 -0.133054790425 0
-0.180283894365 -0.132402046203 0
-0.179339435302 -0.131751002659 0
-0.178390553515 -0.131099937712 0
-0.177441798376 -0.130451799972 0
-0.176488795262 -0.129802715808 0
-0.175537821168 -0.129157068892 0
-0.174582319719 -0.128511324127 0
-0.173627494245 -0.127868864037 0
-0.172667155357 -0.127225172848 0
-0.17170784864 -0.126583352023 0
-0.170746120615 -0.125941781644 0
-0.169785376706 -0.125304152253 0
-0.168820045578 -0.124666073611 0
-0.167856107951 -0.124030580232 0
-0.166889535299 -0.123395982413 0
-0.165921507759 -0.122762586248 0
-0.164952905393 -0.12213050119 0
-0.16398266176 -0.121499401627 0
-0.163012993112 -0.120869233302 0
-0.162039823442 -0.120239557448 0
-0.161068904947 -0.119613086721 0
-0.160094437072 -0.118986034859 0
-0.159122732189 -0.118362742585 0
-0.158146047707 -0.117738886578 0
-0.157171000372 -0.1171180919 0
-0.156194530715 -0.116497089708 0
-0.155218328699 -0.115879026757 0
-0.154243759824 -0.115263527722 0
-0.153265065532 -0.114646350739 0
-0.152289646366 -0.114032342702 0
-0.151311610062 -0.113419541065 0
-0.150335482442 -0.112808268589 0
-0.149356944244 -0.112197925662 0
-0.148379976605 -0.111588765936 0
-0.147402970757 -0.110981427428 0
-0.146427835816 -0.110376086007 0
-0.145451133079 -0.109770459785 0
-0.14447579557 -0.109166970653 0
-0.143503581422 -0.108566738313 0
-0.142527552512 -0.107967399484 0
-0.14155452099 -0.10737002464 0
-0.140582168316 -0.106772048666 0
-0.139608435979 -0.106177471362 0
-0.138635804474 -0.105584679876 0
-0.137665115449 -0.104993322151 0
-0.136697690981 -0.104402199177 0
-0.135728770754 -0.103812919536 0
-0.134761041602 -0.103227316423 0
-0.133793864152 -0.102641127301 0
-0.132828268101 -0.102055695711 0
-0.131867928037 -0.101474614065 0
-0.130906581464 -0.100892829453 0
-0.129949024785 -0.100315046043 0
-0.128989604735 -0.099737340023 0
-0.128033903412 -0.0991631054228 0
-0.127077323703 -0.0985873762301 0
-0.126126041375 -0.0980161566204 0
-0.125178249177 -0.0974481643523 0
-0.124227583858 -0.0968785770559 0
-0.12328366084 -0.0963121591722 0
-0.122339664426 -0.095746705894 0
-0.121400984925 -0.0951848771212 0
-0.120463319353 -0.09462307962 0
-0.119531139569 -0.0940661862909 0
-0.118598171355 -0.0935094877153 0
-0.117669318552 -0.0929574550113 0
-0.116741208774 -0.092404401453 0
-0.115817350391 -0.0918569325132 0
-0.114898288266 -0.0913123002297 0
-0.11397838888 -0.0907648988489 0
-0.113063236525 -0.0902211580343 0
-0.112149630121 -0.0896821997051 0
-0.111243711538 -0.0891452227296 0
-0.110338216375 -0.0886075175667 0
-0.109439497625 -0.0880748832019 0
-0.108542902606 -0.0875434310397 0
-0.107650997764 -0.0870171592673 0
-0.106762116095 -0.0864909102658 0
-0.105878042328 -0.0859709066156 0
-0.105001818438 -0.0854543765594 0
-0.1041240242 -0.0849374481355 0
-0.103253225717 -0.0844268769556 0
-0.102384405819 -0.0839161117137 0
-0.101520880086 -0.0834108710987 0
-0.100663224975 -0.0829116300916 0
-0.0998100002813 -0.0824159416814 0
-0.0989639281135 -0.0819239540901 0
-0.0981186973034 -0.0814343274847 0
-0.0972808673472 -0.0809500431851 0
-0.0964465505411 -0.0804716812096 0
-0.0956164856292 -0.0799983503461 0
-0.0947950937104 -0.0795322212284 0
-0.0939773392025 -0.0790709170821 0
-0.0931633885584 -0.0786181275603 0
-0.0915035534894 -0.0777135662179 0
-0.0904507178022 -0.077140459448 0
-0.0891438523922 -0.0764324570091 0
-0.0875265306933 -0.0755530319768 0
-0.0855329107655 -0.0744544734818 0
-0.0830789373034 -0.0730768589108 0
-0.0800717106571 -0.0713500155587 0
-0.0763970096218 -0.0691825567866 0
-0.0719169837199 -0.0664628241011 0
-0.0664567812512 -0.0629546742828 0
-0.0599254849907 -0.0585402152924 0
-0.0521697106553 -0.0527337241473 0
-0.0432044087537 -0.0453438689429 0
-0.0324327176448 -0.0353544866245 0
-0.0199237005391 -0.0213895497483 0
-0.301398876295 -0.0428871101008 0
-0.167531037336 -0.00825036406806 0
-0.346906851121 -0.161842280091 0
-0.361113161362 -0.253096806057 0
-0.0804030302387 -0.0178602910413 0
-0.226257351754 -0.0691520031316 0
-0.280898197433 -0.133399968213 0
-0.307761369276 -0.191410885181 0
-0.156032785699 -0.0502695352225 0
-0.318604619541 -0.235003228431 0
-0.105127838938 -0.046100758714 0
-0.191600479686 -0.0861253359923 0
-0.234081817233 -0.119904982102 0
-0.257214533666 -0.154077101251 0
-0.276138633691 -0.183157848946 0
-0.294319966535 -0.211858554555 0
-0.153902760569 -0.0780169904805 0
-0.123209513705 -0.0688032618308 0
-0.173737289134 -0.0971914627377 0
-0.202481693034 -0.114485765958 0
-0.220946212295 -0.134153535998 0
-0.236658766744 -0.151737175575 0
-0.251986320104 -0.168667630438 0
-0.0987416366783 -0.0617800381082 0
-0.275431273962 -0.199987677351 0
-0.280749418662 -0.212870352174 0
-0.295717027782 -0.231560362065 0
-0.259332035793 -0.182829140376 0
-0.153887139185 -0.0939882309479 0
-0.135726071443 -0.0852662824736 0
-0.374038011895 -0.315771719009 0
-0.183706383833 -0.113521319659 0
-0.335100664701 -0.2739233237 0
-0.195287696925 -0.125706309679 0
-0.205833824791 -0.134624798171 0
-0.262507757921 -0.192596972569 0
-0.0614708708003 -0.0352022605667 0
-0.215652402308 -0.144138095373 0
-0.122493832285 -0.0816562121513 0
-0.108688458253 -0.074522517304 0
-0.283783445882 -0.222731698096 0
-0.267716305981 -0.200959752654 0
-0.163317710959 -0.105299800884 0
-0.223727393541 -0.152330944521 0
-0.23354684241 -0.160746012254 0
-0.240134272227 -0.168748670521 0
-0.247365655099 -0.176707324403 0
-0.310978685825 -0.253641479124 0
-0.2712457406 -0.207671630353 0
-0.275470996866 -0.214079870762 0
-0.0981257898265 -0.0714940961095 0
-0.0811012087259 -0.0577865034143 0
-0.171343065518 -0.11329033439 0
-0.144128352227 -0.096343968459 0
-0.0891427171323 -0.0684706229857 0
-0.151253544125 -0.10247737959 0
-0.251302613805 -0.183370081912 0
-0.184287356879 -0.1233373778 0
-0.254333748796 -0.18832607508 0
-0.277098153489 -0.218924239577 0
-0.135525864152 -0.0943597188635 0
-0.127931105663 -0.090805962884 0
-0.196523248415 -0.133410744696 0
-0.291019452605 -0.164266209346 0
-0.261000597492 -0.196414740413 0
-0.383041291427 -0.343076776741 0
-0.175771509262 -0.119953359784 0
-0.286352023052 -0.230398582434 0
-0.297197684995 -0.243241218881 0
-0.115772943728 -0.0835552106122 0
-0.206527489531 -0.141807974955 0
-0.18842161583 -0.1297352017 0
-0.343482940779 -0.299916901133 0
-0.225402211728 -0.158668172294 0
-0.345826912877 -0.219024365086 0
-0.104026233097 -0.0778317722468 0
-0.121689526401 -0.088445295924 0
-0.232773608351 -0.166443304112 0
-0.214970404974 -0.151015226391 0
-0.240145210354 -0.173955927182 0
-0.266017360091 -0.20387801686 0
-0.164069019771 -0.113321468312 0
-0.157618133047 -0.109170534898 0
-0.270345672063 -0.210370208095 0
-0.109742553238 -0.0824957686853 0
-0.238195111269 -0.020714850451 0
-0.326201006621 -0.105008050935 0
-0.199742096527 -0.138456019697 0
-0.29207227879 -0.197246245291 0
-0.209217972586 -0.146813246676 0
-0.261989688122 -0.199714124752 0
-0.256694069985 -0.192943805071 0
-0.219676713978 -0.155700172762 0
-0.23551520239 -0.170531630963 0
-0.24297700517 -0.177935279943 0
-0.227595139742 -0.163219479233 0
-0.271766745582 -0.213296360038 0
-0.267369846657 -0.207047964329 0
-0.256997788349 -0.0990682666884 0
-0.315769248866 -0.268946550239 0
-0.094947414628 -0.0744824698055 0
-0.146052466729 -0.103368652914 0
-0.140823151392 -0.100531636217 0
-0.0988694473659 0.0233466989408 0
-0.216328565317 -0.0997243048256 0
-0.190575549467 -0.101271872237 0
-0.319309225317 -0.214799561167 0
-0.191444210959 -0.0590563794909 0
-0.384240858336 -0.0648017924921 0
-0.354257598545 0.0182513523519 0
-0.293382708164 -0.221811016348 0
-0.278752963452 -0.222872988251 0
-0.362823989009 -0.324755069372 0
-0.240431771218 -0.1367859255 0
-0.099321252922 -0.0776537872601 0
-0.249881275034 -0.18598570406 0
-0.394234000082 -0.199039802909 0
-0.137885620659 -0.0582568458165 0
-0.0908971637246 -0.0734776421967 0
-0.178227774428 -0.124949559061 0
-0.170353122834 -0.119346153681 0
-0.152831170361 -0.108555824447 0
-0.245796880757 -0.18152392273 0
-0.123983691994 -0.0362373071567 0
-0.367900285399 -0.289072015676 0
-0.227348558867 -0.144617490043 0
-0.19078796376 -0.133980468815 0
-0.183216663557 -0.128236504907 0
-0.171186030175 -0.0684597400268 0
-0.268128275971 -0.168855670144 0
-0.214357461712 0.0354131939691 0
-0.272578230499 -0.215504101475 0
-0.1943696565 -0.136970908131 0
-0.271373895678 -0.0666162265244 0
-0.378504705344 -0.120708280548 0
-0.131401030669 -0.0961764130617 0
-0.0372739156174 0.00467415453521 0
-0.314177803349 -0.148076353134 0
-0.274600182235 -0.218343205129 0
-0.288908222392 0.0109436938773 0
-0.243903366506 -0.160106945396 0
-0.084485895156 -0.046628558009 0
-0.171913944739 -0.0822725514222 0
-0.270551095989 -0.189864918846 0
-0.206243344705 -0.124502590099 0
-0.395700307371 -0.337078653929 0
-0.329555520331 -0.255729453972 0
-0.165780676118 -0.117226022794 0
-0.159747600308 -0.113602083218 0
-0.173038871932 -0.0334240089954 0
-0.211461569689 -0.041831319726 0
-0.162976786107 -0.0874705980209 0
-0.138093175016 -0.0733580558106 0
-0.39835065307 -0.272158542432 0
-0.2754032744 -0.20529191933 0
-0.201384753582 -0.142459311805 0
-0.136443371791 -0.0991122128554 0
-0.113624258269 -0.0861048685591 0
-0.11773636203 -0.0884932904668 0
-0.119408850073 -0.00888794957705 0
-0.252815175696 -0.190106856299 0
-0.259114534535 -0.128269548344 0
-0.0265307740212 -0.0183158723073 0
-0.304387550529 -0.256723742428 0
-0.0375162281489 -0.00954388363012 0
-0.394971016927 -0.306312651054 0
-0.0852001867228 -0.0695979050943 0
-0.124232455776 -0.0924707676001 0
-0.257495796431 -0.195658395493 0
-0.148480130753 -0.106948892249 0
-0.145577460813 -0.0879937146956 0
-0.210380404114 -0.149839661647 0
-0.205234880266 -0.145875478861 0
-0.262204779006 -0.201667295622 0
-0.107033270243 -0.0828455222316 0
-0.220596696296 -0.158811849277 0
-0.215526836397 -0.154411436474 0
-0.397544985059 -0.352520691597 0
-0.254892475851 -0.175584975404 0
-0.239058215529 -0.176045297895 0
-0.231622803484 -0.168811662448 0
-0.236193834652 -0.173236039992 0
-0.228627334086 -0.166046774136 0
-0.22366922319 -0.161557491455 0
-0.26928417659 -0.211142053213 0
-0.210119347732 -0.0781955423422 0
-0.0658792049998 -0.0522065992068 0
-0.220396884644 -0.120902348733 0
-0.267559813443 -0.208766950291 0
-0.26467757361 -0.204910221083 0
-0.335983181974 -0.189276126159 0
-0.311331922904 -0.244146921652 0
-0.326250409958 -0.285313903097 0
-0.1763538002 -0.106375646455 0
-0.163607904014 -0.0964731842516 0
-0.246605906331 -0.183877501526 0
-0.292635801107 -0.107333012944 0
-0.287187922805 -0.235160419009 0
-0.172480831801 -0.122575609912 0
-0.307847699795 -0.224440604493 0
-0.185198716096 -0.131282016569 0
-0.0763934222386 -0.0623301054476 0
-0.1033943607 -0.0809889271811 0
-0.291369860052 -0.182606785797 0
-0.16229256535 -0.116371225588 0
-0.229787650066 -0.155402241169 0
-0.128187608642 -0.0954178317109 0
-0.315314447185 -0.172001751357 0
-0.266335069158 -0.178497314636 0
-0.250446641917 -0.188244952321 0
-0.351491147293 -0.269667261171 0
-0.258758100379 -0.197670122683 0
-0.110410375779 -0.0645555067898 0
-0.0972018929502 -0.0781083252603 0
-0.212334735033 -0.152582464571 0
-0.284971032378 -0.208795017593 0
-0.110752975163 -0.0856702429876 0
-0.377065680148 -0.230284945977 0
-0.201732746726 -0.129033192167 0
-0.152563788141 0.0301226507835 0
-0.121359265307 -0.0917077151438 0
-0.280268229321 -0.22649928088 0
-0.259755880291 -0.187472326168 0
-0.38551959106 -0.347102900714 0
-0.275830583813 -0.22062556134 0
-0.155298449531 -0.111787180205 0
-0.280535445204 -0.218188973478 0
-0.234368347122 -0.0909737667549 0
-0.347186619712 -0.312113976607 0
-0.0912888485266 -0.0632510260362 0
-0.341618045548 -0.244783535084 0
-0.143456294083 -0.104346859472 0
-0.189640691023 -0.118980596483 0
-0.0946449863303 -0.0771969616019 0
-0.245011596092 -0.172638174518 0
-0.115872802831 -0.0764627430264 0
-0.157464271726 -0.100214770498 0
-0.211868871147 -0.138704569791 0
-0.242338636745 -0.179710759783 0
-0.281524603616 -0.195079320533 0
-0.275322040261 -0.158457707653 0
-0.369922503198 -0.33595541954 0
-0.269687990204 -0.197191454452 0
-0.352607211451 -0.291921265668 0
-0.274276427146 -0.211098614078 0
-0.248016076841 -0.152269251389 0
-0.193353460327 -0.111414761436 0
-0.129056575334 -0.0777463180165 0
-0.380825435109 -0.332646094771 0
-0.253402340861 -0.18019769027 0
-0.30624592573 -0.20763960294 0
-0.295378342373 -0.24722049942 0
-0.237356589581 -0.164491706632 0
-0.153874909282 -0.0859811658982 0