# vtk DataFile Version 2.0
Generated with Solid Solver
ASCII
DATASET UNSTRUCTURED_GRID
POINTS 3379 float 
0.0 0.0 0.0
10.0 0.0 0.0
10.0 20.0 0.0
-20.0 20.0 0.0
-20.0 10.0 0.0
-5.0 10.0 0.0
0.0 5.0 0.0
1.11111111111 0.0 0.0
2.22222222222 0.0 0.0
3.33333333333 0.0 0.0
4.44444444444 0.0 0.0
5.55555555555 0.0 0.0
6.66666666666 0.0 0.0
7.77777777777 0.0 0.0
8.88888888889 0.0 0.0
10.0 1.17647058823 0.0
10.0 2.35294117647 0.0
10.0 3.5294117647 0.0
10.0 4.70588235293 0.0
10.0 5.88235294116 0.0
10.0 7.0588235294 0.0
10.0 8.23529411763 0.0
10.0 9.41176470587 0.0
10.0 10.5882352941 0.0
10.0 11.7647058823 0.0
10.0 12.9411764706 0.0
10.0 14.1176470588 0.0
10.0 15.2941176471 0.0
10.0 16.4705882353 0.0
10.0 17.6470588235 0.0
10.0 18.8235294118 0.0
8.8 20.0 0.0
7.6 20.0 0.0
6.39999999999 20.0 0.0
5.19999999999 20.0 0.0
4.0 20.0 0.0
2.8 20.0 0.0
1.6 20.0 0.0
0.400000000005 20.0 0.0
-0.79999999999 20.0 0.0
-1.99999999999 20.0 0.0
-3.19999999998 20.0 0.0
-4.39999999998 20.0 0.0
-5.59999999997 20.0 0.0
-6.79999999998 20.0 0.0
-7.99999999998 20.0 0.0
-9.19999999998 20.0 0.0
-10.4 20.0 0.0
-11.6 20.0 0.0
-12.8 20.0 0.0
-14.0 20.0 0.0
-15.2 20.0 0.0
-16.4 20.0 0.0
-17.6 20.0 0.0
-18.8 20.0 0.0
-20.0 18.8888888889 0.0
-20.0 17.7777777778 0.0
-20.0 16.6666666667 0.0
-20.0 15.5555555556 0.0
-20.0 14.4444444444 0.0
-20.0 13.3333333333 0.0
-20.0 12.2222222222 0.0
-20.0 11.1111111111 0.0
-18.8650027336 10.0 0.0
-17.813310278 10.0 0.0
-16.8388083846 10.0 0.0
-15.9358314798 10.0 0.0
-15.0991299341 10.0 0.0
-14.3238392211 10.0 0.0
-13.6054522927 10.0 0.0
-12.9397923214 10.0 0.0
-12.3229895186 10.0 0.0
-11.7514578516 10.0 0.0
-11.2218745847 10.0 0.0
-10.7311608998 10.0 0.0
-10.2764639398 10.0 0.0
-9.85514009809 10.0 0.0
-9.46473993718 10.0 0.0
-9.10299376652 10.0 0.0
-8.76779846999 10.0 0.0
-8.45720535465 10.0 0.0
-8.16940869126 10.0 0.0
-7.90273530971 10.0 0.0
-7.65563480469 10.0 0.0
-7.42667061625 10.0 0.0
-7.21451157725 10.0 0.0
-7.01792427638 10.0 0.0
-6.83576580446 10.0 0.0
-6.66697710929 10.0 0.0
-6.51057691162 10.0 0.0
-6.36565595492 10.0 0.0
-6.23137167006 10.0 0.0
-6.10694339793 10.0 0.0
-5.99164772416 10.0 0.0
-5.88481433485 10.0 0.0
-5.78582216167 10.0 0.0
-5.69409565458 10.0 0.0
-5.60910153833 10.0 0.0
-5.53034570218 10.0 0.0
-5.45737027246 10.0 0.0
-5.38975097877 10.0 0.0
-5.32709470476 10.0 0.0
-5.26903718838 10.0 0.0
-5.21524088515 10.0 0.0
-5.16539304215 10.0 0.0
-5.11920385255 10.0 0.0
-5.07640479059 10.0 0.0
-5.03674702257 10.0 0.0
-4.96413737767 9.99987138558 0.0
-4.92827660031 9.99948554893 0.0
-4.89241951282 9.9988425099 0.0
-4.85656795989 9.99794230157 0.0
-4.82072378593 9.99678497027 0.0
-4.78488883498 9.99537057551 0.0
-4.74906495058 9.99369919008 0.0
-4.71325397573 9.99177089995 0.0
-4.67745775275 9.98958580433 0.0
-4.64167812321 9.98714401563 0.0
-4.60591692781 9.98444565947 0.0
-4.57017600631 9.98149087467 0.0
-4.53445719745 9.97827981325 0.0
-4.49876233879 9.97481264039 0.0
-4.46309326668 9.97108953447 0.0
-4.42745181616 9.96711068703 0.0
-4.39183982081 9.96287630276 0.0
-4.35625911274 9.9583865995 0.0
-4.32071152241 9.95364180823 0.0
-4.2851988786 9.94864217305 0.0
-4.24972300828 9.94338795116 0.0
-4.21428573654 9.93787941288 0.0
-4.17888888647 9.9321168416 0.0
-4.1435342791 9.92610053378 0.0
-4.10822373326 9.91983079893 0.0
-4.07295906554 9.9133079596 0.0
-4.03774209015 9.90653235136 0.0
-4.00257461886 9.89950432279 0.0
-3.96745846088 9.89222423546 0.0
-3.9323954228 9.88469246389 0.0
-3.89738730846 9.87690939556 0.0
-3.86243591888 9.86887543087 0.0
-3.82754305215 9.86059098315 0.0
-3.79271050337 9.85205647858 0.0
-3.75794006453 9.84327235624 0.0
-3.72323352442 9.83423906803 0.0
-3.68859266854 9.82495707867 0.0
-3.65401927902 9.81542686568 0.0
-3.61951513452 9.80564891936 0.0
-3.58508201011 9.79562374274 0.0
-3.55072167726 9.78535185156 0.0
-3.51643590364 9.77483377428 0.0
-3.48222645311 9.764070052 0.0
-3.44809508561 9.75306123848 0.0
-3.41404355706 9.74180790006 0.0
-3.38007361925 9.73031061569 0.0
-3.3461870198 9.71856997686 0.0
-3.31238550203 9.70658658757 0.0
-3.27867080489 9.69436106431 0.0
-3.24504466285 9.68189403603 0.0
-3.21150880584 9.66918614412 0.0
-3.17806495913 9.65623804233 0.0
-3.14471484327 9.6430503968 0.0
-3.11146017398 9.62962388597 0.0
-3.07830266208 9.61595920058 0.0
-3.04524401337 9.60205704362 0.0
-3.01228592859 9.5879181303 0.0
-2.97943010329 9.573543188 0.0
-2.94667822776 9.55893295626 0.0
-2.91403198694 9.5440881867 0.0
-2.88149306036 9.52900964303 0.0
-2.84906312199 9.51369810098 0.0
-2.81674384022 9.49815434826 0.0
-2.78453687775 9.48237918454 0.0
-2.75244389148 9.46637342136 0.0
-2.72046653246 9.45013788218 0.0
-2.6886064458 9.43367340222 0.0
-2.65686527055 9.41698082853 0.0
-2.62524463967 9.40006101987 0.0
-2.59374617991 9.38291484668 0.0
-2.56237151172 9.36554319107 0.0
-2.53112224921 9.34794694674 0.0
-2.50000000001 9.33012701893 0.0
-2.46900636523 9.3120843244 0.0
-2.43814293936 9.29381979138 0.0
-2.40741131021 9.2753343595 0.0
-2.37681305877 9.25662897976 0.0
-2.3463497592 9.23770461447 0.0
-2.3160229787 9.2185622372 0.0
-2.28583427747 9.19920283276 0.0
-2.25578520858 9.1796273971 0.0
-2.22587731793 9.15983693729 0.0
-2.19611214416 9.13983247147 0.0
-2.16649121855 9.11961502879 0.0
-2.13701606498 9.09918564935 0.0
-2.10768819982 9.07854538415 0.0
-2.07850913186 9.05769529504 0.0
-2.04948036225 9.03663645468 0.0
-2.02060338439 9.01536994646 0.0
-1.99187968388 8.99389686444 0.0
-1.96331073843 8.97221831332 0.0
-1.9348980178 8.95033540838 0.0
-1.90664298369 8.9282492754 0.0
-1.87854708972 8.90596105061 0.0
-1.85061178129 8.88347188065 0.0
-1.82283849556 8.8607829225 0.0
-1.79522866134 8.8378953434 0.0
-1.76778369905 8.81481032082 0.0
-1.74050502061 8.7915290424 0.0
-1.7133940294 8.76805270584 0.0
-1.68645212016 8.74438251892 0.0
-1.65968067894 8.72051969936 0.0
-1.63308108301 8.69646547481 0.0
-1.60665470082 8.67222108274 0.0
-1.58040289188 8.64778777044 0.0
-1.55432700675 8.62316679489 0.0
-1.52842838691 8.59835942274 0.0
-1.50270836475 8.57336693022 0.0
-1.47716826344 8.54819060309 0.0
-1.45180939692 8.52283173657 0.0
-1.42663306979 8.49729163526 0.0
-1.40164057727 8.4715716131 0.0
-1.37683320512 8.44567299326 0.0
-1.35221222957 8.41959710813 0.0
-1.32777891727 8.39334529919 0.0
-1.30353452521 8.366918917 0.0
-1.27948030065 8.34031932107 0.0
-1.25561748109 8.31354787985 0.0
-1.23194729417 8.28660597061 0.0
-1.20847095761 8.2594949794 0.0
-1.18518967919 8.23221630096 0.0
-1.16210465661 8.20477133867 0.0
-1.13921707751 8.17716150446 0.0
-1.11652811936 8.14938821872 0.0
-1.0940389494 8.12145291029 0.0
-1.07175072461 8.09335701632 0.0
-1.04966459163 8.06510198221 0.0
-1.02778168669 8.03668926158 0.0
-1.00610313557 8.00812031613 0.0
-0.984630053552 7.97939661562 0.0
-0.963363545327 7.95051963776 0.0
-0.942304704967 7.92149086815 0.0
-0.921454615862 7.89231180019 0.0
-0.90081435066 7.86298393503 0.0
-0.880384971216 7.83350878146 0.0
-0.860167528534 7.80388785585 0.0
-0.840163062717 7.77412268208 0.0
-0.82037260291 7.74421479143 0.0
-0.800797167248 7.71416572254 0.0
-0.781437762805 7.68397702131 0.0
-0.762295385539 7.65365024081 0.0
-0.743371020246 7.62318694124 0.0
-0.724665640503 7.5925886898 0.0
-0.706180208624 7.56185706065 0.0
-0.687915675605 7.53099363478 0.0
-0.66987298108 7.5 0.0
-0.652053053269 7.4688777508 0.0
-0.634456808932 7.43762848829 0.0
-0.617085153321 7.4062538201 0.0
-0.599938980135 7.37475536034 0.0
-0.58301917147 7.34313472946 0.0
-0.566326597781 7.31139355421 0.0
-0.549862117829 7.27953346755 0.0
-0.533626578641 7.24755610853 0.0
-0.517620815469 7.21546312226 0.0
-0.50184565174 7.18325615978 0.0
-0.486301899021 7.15093687802 0.0
-0.470990356971 7.11850693965 0.0
-0.455911813304 7.08596801306 0.0
-0.441067043748 7.05332177225 0.0
-0.426456812003 7.02056989672 0.0
-0.412081869704 6.98771407142 0.0
-0.397942956381 6.95475598663 0.0
-0.384040799421 6.92169733793 0.0
-0.370376114032 6.88853982602 0.0
-0.356949603203 6.85528515674 0.0
-0.343761957671 6.82193504088 0.0
-0.330813855886 6.78849119417 0.0
-0.318105963973 6.75495533716 0.0
-0.305638935697 6.72132919512 0.0
-0.293413412437 6.68761449797 0.0
-0.281430023142 6.6538129802 0.0
-0.269689384307 6.61992638075 0.0
-0.25819209994 6.58595644295 0.0
-0.246938761526 6.55190491439 0.0
-0.235929948002 6.51777354689 0.0
-0.225166225724 6.48356409637 0.0
-0.214648148442 6.44927832275 0.0
-0.204376257265 6.41491798989 0.0
-0.194351080639 6.38048486549 0.0
-0.184573134316 6.34598072098 0.0
-0.175042921332 6.31140733146 0.0
-0.165760931974 6.27676647558 0.0
-0.156727643762 6.24205993547 0.0
-0.14794352142 6.20728949663 0.0
-0.139409016855 6.17245694785 0.0
-0.13112456913 6.13756408113 0.0
-0.123090604445 6.10261269154 0.0
-0.115307536114 6.0676045772 0.0
-0.107775764543 6.03254153912 0.0
-0.100495677209 5.99742538114 0.0
-0.093467648642 5.96225790985 0.0
-0.0866920404046 5.92704093447 0.0
-0.080169201073 5.89177626674 0.0
-0.0738994662197 5.85646572091 0.0
-0.067883158396 5.82111111353 0.0
-0.0621205871156 5.78571426346 0.0
-0.0566120488383 5.75027699172 0.0
-0.0513578269551 5.7148011214 0.0
-0.0463581917735 5.67928847759 0.0
-0.0416134005035 5.64374088726 0.0
-0.0371236972447 5.60816017919 0.0
-0.0328893129732 5.57254818384 0.0
-0.0289104655302 5.53690673332 0.0
-0.0251873596105 5.50123766122 0.0
-0.0217201867523 5.46554280255 0.0
-0.0185091253269 5.42982399369 0.0
-0.0155543405298 5.39408307219 0.0
-0.0128559843721 5.35832187679 0.0
-0.010414195673 5.32254224725 0.0
-0.00822910005203 5.28674602427 0.0
-0.00630080992318 5.25093504942 0.0
-0.00462942448881 5.21511116502 0.0
-0.00321502973463 5.17927621407 0.0
-0.00205769842527 5.14343204011 0.0
-0.00115749010052 5.10758048718 0.0
-0.000514451072299 5.07172339969 0.0
-0.000128614422241 5.03586262233 0.0
0.0 4.96210871268 0.0
0.0 4.91493291879 0.0
0.0 4.85619761383 0.0
0.0 4.78307039291 0.0
0.0 4.69202478373 0.0
0.0 4.57867022864 0.0
0.0 4.43754040407 0.0
0.0 4.26182947167 0.0
0.0 4.043064028 0.0
0.0 3.77069445193 0.0
0.0 3.43158604656 0.0
0.0 3.0093857748 0.0
[...]
POINT_DATA 3379
VECTORS Displacement float
0.0 0.0 0
0.0 0.0 0
-1.1617352841 0.24300670995 0
-1.0 -0.88525781268 0
-1.0 -0.847969788637 0
-0.678050397925 -0.539246292285 0
-0.232166964613 -0.197882446006 0
0.0 0.0 0
0.0 0.0 0
0.0 0.0 0
0.0 0.0 0
0.0 0.0 0
0.0 0.0 0
0.0 0.0 0
0.0 0.0 0
-0.0605936592978 0.0605837031409 0
-0.108371600727 0.105721287642 0
-0.163500859365 0.144888138235 0
-0.223408982275 0.176814753868 0
-0.290168180081 0.203711130642 0
-0.362400227162 0.223952839739 0
-0.43621943039 0.238458455662 0
-0.513062617643 0.248472231845 0
-0.588946097156 0.254152512674 0
-0.664808049824 0.256259218973 0
-0.739213142672 0.256213009255 0
-0.812225646137 0.254809327084 0
-0.883675205176 0.252508908142 0
-0.95407623616 0.249847302854 0
-1.02346332815 0.247417254303 0
-1.09263915177 0.245077892697 0
-1.15961030569 0.172409707563 0
-1.1572142794 0.101869655971 0
-1.15471787549 0.0315484212106 0
-1.15201337204 -0.0381487437396 0
-1.14913203836 -0.107259134307 0
-1.14571605776 -0.175693531731 0
-1.14200349532 -0.243059775641 0
-1.13751367994 -0.309267668324 0
-1.13212136214 -0.373261604973 0
-1.1255626243 -0.434961670252 0
-1.11782192272 -0.493961107889 0
-1.10920165536 -0.548785868217 0
-1.10036723038 -0.599712265348 0
-1.09136491294 -0.646320788815 0
-1.08218045555 -0.688551415873 0
-1.07292711899 -0.72648119765 0
-1.0641318091 -0.760094464324 0
-1.05487424582 -0.789372328644 0
-1.04694473813 -0.815301683794 0
-1.03845615315 -0.836251328852 0
-1.03074655229 -0.853784183718 0
-1.02278712555 -0.867579331268 0
-1.01513354683 -0.876187549118 0
-1.00727461079 -0.882564357698 0
-1.0 -0.886961070919 0
-1.0 -0.887858869649 0
-1.0 -0.886963470048 0
-1.0 -0.88480094125 0
-1.0 -0.880597632972 0
-1.0 -0.87467042212 0
-1.0 -0.867476158238 0
-1.0 -0.858150126727 0
-0.97647798375 -0.845905491264 0
-0.954078957152 -0.841359933531 0
-0.933857151185 -0.834230607761 0
-0.914781228333 -0.825183991514 0
-0.89691564572 -0.814779921342 0
-0.880679686394 -0.803488377396 0
-0.865658238556 -0.791480052286 0
-0.85165050208 -0.779012613451 0
-0.838481600503 -0.766489595938 0
-0.826424123118 -0.753854605192 0
-0.81525426742 -0.741424772455 0
-0.804835898872 -0.729154026654 0
-0.795255749844 -0.71719005159 0
-0.786258884354 -0.705666729455 0
-0.777947394101 -0.694509601551 0
-0.770254290428 -0.683807032335 0
-0.763107044074 -0.673565968375 0
-0.756464369585 -0.663812119044 0
-0.750318208458 -0.654540908676 0
-0.744595422127 -0.645768244499 0
-0.739223388458 -0.637513724148 0
-0.734257708384 -0.629693961283 0
-0.729619496811 -0.622338765783 0
-0.725328731455 -0.61540776674 0
-0.721308573025 -0.608908319825 0
-0.717550086745 -0.602813372732 0
-0.714060230553 -0.597100537019 0
-0.710808402628 -0.591750845827 0
-0.707768956881 -0.586758049532 0
-0.704936977147 -0.582088782889 0
-0.702288569781 -0.577745999898 0
-0.699818469336 -0.573687530053 0
-0.697505667668 -0.569909933382 0
-0.695350201983 -0.566380957014 0
-0.693330404801 -0.563105906688 0
-0.691443882284 -0.56005975121 0
-0.68967829514 -0.557223627698 0
-0.688027759326 -0.554587537945 0
-0.686481364091 -0.552134146442 0
-0.685032889777 -0.549861880552 0
-0.683677459696 -0.547746072285 0
-0.682406104594 -0.545786422357 0
-0.681214350701 -0.543961345373 0
-0.680095602058 -0.54227028877 0
-0.679043974969 -0.540698560811 0
-0.677061627616 -0.537815491691 0
-0.67604309177 -0.536389334653 0
-0.675004314015 -0.53494529326 0
-0.673936595146 -0.533498105623 0
-0.67285624064 -0.532038964605 0
-0.671754059513 -0.530578113477 0
-0.670638054121 -0.529110321613 0
-0.669495448876 -0.527635199338 0
-0.668345711545 -0.52615368724 0
-0.66717726786 -0.524657549155 0
-0.665982702298 -0.523166717301 0
-0.66478004994 -0.521657271085 0
-0.663553251886 -0.520147613548 0
-0.66231766845 -0.518634417079 0
-0.661070721516 -0.517112256502 0
-0.659802689486 -0.515582463562 0
-0.658514616534 -0.514051017859 0
-0.657218616754 -0.512508708173 0
-0.655903747084 -0.510961927149 0
-0.654579887914 -0.509417389763 0
-0.653242303338 -0.507856693037 0
-0.651880966668 -0.506295973633 0
-0.650514641595 -0.504722382673 0
-0.649129422827 -0.503148248211 0
-0.647735086727 -0.501565904745 0
-0.646323816597 -0.499980845799 0
-0.644903491683 -0.498391906312 0
-0.643466206048 -0.496798250602 0
-0.642019822382 -0.495204598303 0
-0.640553377229 -0.493599794274 0
-0.639077863979 -0.491992884815 0
-0.637591914416 -0.490379514904 0
-0.636087301458 -0.488762273666 0
-0.634578873185 -0.487144651085 0
-0.63305081099 -0.485519970424 0
-0.631507221313 -0.48389291493 0
-0.629957507329 -0.482263539503 0
-0.628388146118 -0.480627475035 0
-0.626812416012 -0.478983074573 0
-0.625228326172 -0.477338058133 0
-0.623629794253 -0.475694156412 0
-0.622012673004 -0.474046185141 0
-0.620388799002 -0.472388531509 0
-0.61874741891 -0.470729333153 0
-0.617101646046 -0.469073844217 0
-0.615445906051 -0.467411745539 0
-0.613774240476 -0.465740869263 0
-0.612086976358 -0.464075319213 0
-0.610392664146 -0.462404892162 0
-0.608680758768 -0.460729034725 0
-0.606965448277 -0.459057191076 0
-0.605240517299 -0.457378216936 0
-0.6034985358 -0.455693345678 0
-0.601743902362 -0.454011785651 0
-0.599985557535 -0.452330471581 0
-0.598208919225 -0.450643069481 0
-0.596417291096 -0.448955043026 0
-0.594620681172 -0.447266236992 0
-0.592818171376 -0.445574079588 0
-0.590995694541 -0.443881502203 0
-0.589172020638 -0.442189859235 0
-0.587333866341 -0.440486781927 0
-0.585479304314 -0.438795211335 0
-0.58361931602 -0.437092537433 0
-0.581741481362 -0.435390787367 0
-0.57986037919 -0.433692507284 0
-0.5779716134 -0.431988827013 0
-0.576069083985 -0.430283869619 0
-0.574150940799 -0.428581695612 0
-0.572230631227 -0.426879422708 0
-0.570291740675 -0.425173824339 0
-0.568352727522 -0.423464988266 0
-0.566396141712 -0.421762761927 0
-0.56443365243 -0.420052811121 0
-0.562453993287 -0.4183434427 0
-0.560471936634 -0.416638070312 0
-0.55848300707 -0.414928782773 0
-0.55648123503 -0.413219706076 0
-0.554464868551 -0.411514195745 0
-0.552448063325 -0.409813064906 0
-0.550411471157 -0.408106483527 0
-0.548376689338 -0.406399355775 0
-0.54632214541 -0.404695735473 0
-0.544263399295 -0.402985618867 0
-0.542192112522 -0.401279024622 0
-0.540115870024 -0.399574622976 0
-0.538024770509 -0.397869624127 0
-0.535932138871 -0.39616856107 0
-0.53382371565 -0.394463612481 0
-0.53171371922 -0.392762452153 0
-0.529588644692 -0.391061406723 0
-0.527459192703 -0.389362239129 0
-0.525316461386 -0.387661806888 0
-0.523171449361 -0.385966124717 0
-0.521012106899 -0.384267566101 0
-0.518850283305 -0.38257227762 0
-0.516675118581 -0.380877204849 0
-0.514496093869 -0.379186370112 0
-0.512304246775 -0.377493922937 0
-0.510111220724 -0.375806707287 0
-0.507902876329 -0.374116174671 0
-0.505695745612 -0.37243140363 0
-0.503472717071 -0.370746586046 0
-0.501247985717 -0.369063807574 0
-0.499010576785 -0.367381793195 0
-0.496768024818 -0.365705264491 0
-0.494519940907 -0.364027809463 0
-0.492263604024 -0.362354910292 0
-0.49000120607 -0.36068167634 0
-0.487727402879 -0.359005023789 0
-0.485451761803 -0.357338646397 0
-0.483163539615 -0.355673953253 0
-0.480875514957 -0.354008872485 0
-0.478574872477 -0.352343879935 0
-0.476272781877 -0.350685780404 0
-0.473964261315 -0.349026805032 0
-0.471651024093 -0.347370681061 0
-0.469327201093 -0.345718671637 0
-0.467000703238 -0.344071159443 0
-0.464661487302 -0.342420683279 0
-0.462324227675 -0.340775906218 0
-0.459975265548 -0.339130071026 0
-0.457628110876 -0.337491359224 0
-0.455268265612 -0.335852477895 0
-0.452907730738 -0.334217642747 0
-0.45054525703 -0.332586637611 0
-0.44817189254 -0.330955774279 0
-0.445798359472 -0.329331790605 0
-0.443414226574 -0.327705334455 0
-0.441034857457 -0.326087321559 0
-0.438644125558 -0.324468696752 0
-0.436254691103 -0.322858058172 0
-0.433851484862 -0.321243985714 0
-0.431450879612 -0.319634395839 0
-0.429044068234 -0.318025451941 0
-0.426639445023 -0.316426175361 0
-0.424223037525 -0.314825433077 0
-0.421810152046 -0.313230962939 0
-0.419390257337 -0.311638524545 0
-0.41696678959 -0.310048901563 0
-0.414541749302 -0.308462385316 0
-0.412112490261 -0.306878063688 0
-0.409684392966 -0.305295950374 0
-0.407247382905 -0.303714765991 0
-0.404815918978 -0.302141642782 0
-0.402375381546 -0.30056682084 0
-0.399941467213 -0.299001392368 0
-0.39749483211 -0.297434207507 0
-0.395052354631 -0.295874556897 0
-0.392605646684 -0.294314234053 0
-0.39016011671 -0.292761094996 0
-0.387717843754 -0.291214105529 0
-0.385265331091 -0.289662757615 0
-0.382820872794 -0.288119109803 0
-0.380369575354 -0.286578911513 0
-0.377922604347 -0.285042228334 0
-0.375469738343 -0.283507255952 0
-0.373020641744 -0.281975525358 0
-0.370571077192 -0.280448416124 0
-0.368125971109 -0.278926067286 0
-0.365676548427 -0.277402694705 0
-0.363231154345 -0.27588480172 0
-0.360792155539 -0.274375040126 0
-0.358344040734 -0.272867331636 0
-0.35590314025 -0.271364269971 0
-0.353463549853 -0.26985994766 0
-0.351020574687 -0.268363653291 0
-0.348579905667 -0.266871552952 0
-0.346144139272 -0.265383008415 0
-0.343716311884 -0.263895454885 0
-0.341284205843 -0.262412489547 0
-0.338855130692 -0.260938268175 0
-0.336426945675 -0.259462486888 0
-0.33400277101 -0.257988846261 0
-0.331591699477 -0.256526346714 0
-0.329177659715 -0.255061903315 0
-0.326772982428 -0.253607480029 0
-0.324363016496 -0.252152799448 0
-0.321962538168 -0.250706961939 0
-0.319559557105 -0.249257138427 0
-0.317170006481 -0.247819025952 0
-0.314788297797 -0.246388926168 0
-0.312399446988 -0.244954541023 0
-0.310027604656 -0.243528632668 0
-0.307655055184 -0.242104742648 0
-0.305295979591 -0.240690302271 0
-0.302938859349 -0.239275841851 0
-0.300595576982 -0.237873997743 0
-0.298249436163 -0.236472270783 0
-0.295913953533 -0.235082285802 0
-0.293579905384 -0.233689690142 0
-0.291256560302 -0.232311251811 0
-0.288944318111 -0.230939856267 0
-0.286630518647 -0.229561514771 0
-0.284328162239 -0.228192570418 0
-0.282029719464 -0.226835209229 0
-0.279750340679 -0.225483371588 0
-0.277471782574 -0.224129404807 0
-0.275210567535 -0.222788684218 0
-0.272953907361 -0.221450890057 0
-0.270709121243 -0.220126117779 0
-0.268471505732 -0.218801485092 0
-0.266245935223 -0.217492682152 0
-0.264039681035 -0.216192883838 0
-0.261829285517 -0.21489183693 0
-0.259636405652 -0.213606970078 0
-0.257448221318 -0.212321425868 0
-0.255273484897 -0.211050035761 0
-0.253113175584 -0.209793959387 0
-0.250963690526 -0.20854673916 0
-0.248832072065 -0.207309120996 0
-0.246702236754 -0.206077261941 0
-0.2445911718 -0.204859106548 0
-0.242488246031 -0.203655725679 0
-0.240395953276 -0.202465044698 0
-0.238325258108 -0.201292926431 0
-0.236262981219 -0.200132760874 0
-0.234209782484 -0.198993914106 0
-0.230021360137 -0.196717583676 0
-0.227364241969 -0.195274361357 0
-0.224064741167 -0.19349026446 0
-0.219981021506 -0.191272942529 0
-0.214948298105 -0.188501200338 0
-0.208752373303 -0.18502344906 0
-0.201160850363 -0.18066239895 0
-0.191884939061 -0.175187762028 0
-0.18057225259 -0.168316098593 0
-0.166783296701 -0.159442511804 0
-0.1502854623 -0.148284367266 0
-0.13069804295 -0.133590934907 0
-0.108082161446 -0.114923470506 0
-0.0808883370798 -0.0896045256987 0
-0.049514274716 -0.054203812792 0
-0.758366136842 -0.116964888248 0
-0.425275760846 -0.0242731604933 0
-0.866867456294 -0.413280575713 0
-0.90027942339 -0.635937722047 0
-0.2049827138 -0.0448575022568 0
-0.570602481926 -0.179205019892 0
-0.704315417242 -0.34092084133 0
-0.769382554485 -0.484161878949 0
-0.395366039823 -0.12886895304 0
-0.796047503723 -0.590270035873 0
-0.266784937491 -0.116421243898 0
-0.483482024958 -0.220093198663 0
-0.588369185106 -0.30578168255 0
-0.644881340485 -0.390849247241 0
-0.691347928687 -0.462651480073 0
-0.736260357582 -0.533121134294 0
-0.389027333836 -0.198276117049 0
-0.311706576828 -0.174085560578 0
-0.438155904751 -0.246952030827 0
-0.509606358767 -0.291064467889 0
-0.555076959091 -0.340363893385 0
-0.593801241223 -0.384166728567 0
-0.631659878167 -0.426191495507 0
-0.249701177795 -0.155832702674 0
-0.689752437112 -0.503373012001 0
-0.703172827469 -0.534766314967 0
-0.740269685188 -0.580688245447 0
-0.649862138819 -0.460940855881 0
-0.388182378061 -0.238233373999 0
-0.342603129509 -0.215840654095 0
-0.932961274557 -0.786811501716 0
-0.462472109761 -0.287898437703 0
-0.837150278805 -0.684718299219 0
-0.491064168035 -0.318446853448 0
-0.517213153512 -0.340819458581 0
-0.657887125206 -0.484731010872 0
-0.155798114445 -0.0880990410679 0
-0.541531204344 -0.364559148234 0
-0.30912297145 -0.206467155684 0
-0.274325399911 -0.188251166417 0
-0.711029872132 -0.558697195018 0
-0.670943854924 -0.505228405616 0
-0.411412916346 -0.266745051173 0
-0.561545069751 -0.384942817647 0
-0.585920409519 -0.405932908247 0
-0.602274000596 -0.425715202054 0
-0.620249582094 -0.445407587771 0
-0.778086712133 -0.634686809038 0
-0.679871432796 -0.521626040443 0
-0.690478065854 -0.537332575486 0
-0.247481112139 -0.18054024284 0
-0.204754263514 -0.145621365332 0
-0.431270499515 -0.286850494773 0
-0.363266299309 -0.243837624097 0
-0.224650130666 -0.172911355131 0
-0.380979998838 -0.259347040052 0
-0.630100046083 -0.461744125696 0
-0.463456877205 -0.31214858831 0
-0.637710344687 -0.473891584823 0
-0.694735316382 -0.549095533468 0
-0.341490042584 -0.238680350512 0
-0.322361275128 -0.229629027074 0
-0.493859568983 -0.33740957764 0
-0.728493078122 -0.417201785067 0
-0.654368304151 -0.493826270754 0
-0.956561828349 -0.851918262145 0
-0.442110068372 -0.30347491307 0
-0.717677412773 -0.577310577162 0
-0.744435308635 -0.608873813593 0
-0.291809474103 -0.211207344872 0
-0.51872444074 -0.358411537054 0
-0.47359514217 -0.328039625295 0
-0.858538465319 -0.747282004872 0
-0.56565234743 -0.400424145418 0
-0.862903241376 -0.552854366467 0
-0.262144796878 -0.196678372525 0
-0.306582015141 -0.223616741756 0
-0.583997044727 -0.419688223483 0
-0.539680120308 -0.381264005986 0
-0.602359883392 -0.438302806181 0
-0.666988358304 -0.512134811111 0
-0.41283805997 -0.286677020845 0
-0.396718402646 -0.276184468601 0
-0.677891584775 -0.528055016153 0
-0.276443160753 -0.208528363742 0
-0.601798506209 -0.0587806919909 0
-0.817602036094 -0.272348460521 0
-0.501779052917 -0.349895916842 0
-0.730623148111 -0.497637750477 0
-0.525349245541 -0.370739984292 0
-0.656965042251 -0.501833251622 0
-0.64369180838 -0.485172287827 0
-0.551388778315 -0.392897052419 0
-0.590842260005 -0.429738054892 0
-0.609444732674 -0.448086873249 0
-0.57110929261 -0.411573328154 0
-0.681536383865 -0.535191977365 0
-0.670481664201 -0.519854044872 0
-0.646131471595 -0.254990743832 0
-0.790377204359 -0.671679571115 0
-0.239105835432 -0.188243864147 0
-0.367683079336 -0.261444995074 0
-0.354555066569 -0.254250299435 0
-0.252977606706 0.0576097277053 0
-0.544820129803 -0.255000747975 0
-0.480306913598 -0.25778728759 0
-0.797654079222 -0.541472390736 0
-0.483960014768 -0.15244503921 0
-0.962908080241 -0.174869516532 0
-0.892041518249 0.033008925913 0
-0.734220296147 -0.557075426609 0
-0.698991236444 -0.558708468954 0
-0.906561891095 -0.807363669674 0
-0.603612601251 -0.347691437088 0
-0.250088606804 -0.19629514525 0
-0.626702613956 -0.467949799763 0
-0.982517755723 -0.505974953161 0
-0.349361883594 -0.148115029115 0
-0.2287844697 -0.185765319846 0
-0.44806362277 -0.315868600744 0
-0.428419822308 -0.301779457366 0
-0.38458479344 -0.274527853144 0
-0.616500863634 -0.45692453664 0
-0.314928157366 -0.0923669574552 0
-0.917230471515 -0.722734080672 0
-0.570753636975 -0.366312488731 0
-0.47938788085 -0.338538518185 0
-0.460519945909 -0.324141295269 0
-0.432902000704 -0.175072364975 0
-0.671670257275 -0.427453705293 0
-0.543990136479 0.0825797390391 0
-0.683667897436 -0.540558398727 0
-0.488305330803 -0.34601086571 0
-0.682955140048 -0.174800470421 0
-0.946422753878 -0.31308771139 0
-0.330822625732 -0.243193016394 0
-0.0960553425134 0.0122061443164 0
-0.786331070458 -0.378287101564 0
-0.688731222766 -0.547528385859 0
-0.729266902645 0.0178206923696 0
-0.611680580018 -0.404942500217 0
-0.214116579927 -0.117261853194 0
-0.43422698773 -0.209647700757 0
-0.67758435999 -0.478618990899 0
-0.518624002027 -0.315964372484 0
-0.986451792386 -0.838665638856 0
-0.82316131713 -0.640750141315 0
-0.416943988883 -0.2963906904 0
-0.401844012737 -0.287239971357 0
-0.43850474919 -0.0874769814328 0
-0.534468346932 -0.110290235565 0
-0.411493896382 -0.222278098886 0
-0.349258044003 -0.186010302746 0
-0.991402212662 -0.683392171392 0
-0.689851195709 -0.51616825657 0
-0.505788895898 -0.359736684461 0
-0.34348178993 -0.250625745115 0
-0.286108892985 -0.217690560339 0
-0.296456353541 -0.223737318454 0
-0.30406246353 -0.0237629796219 0
-0.634077472637 -0.478072231129 0
-0.650385327157 -0.327440422783 0
-0.0669035285426 -0.0454675041 0
-0.762437751022 -0.641696837716 0
-0.0959066228214 -0.0233129520637 0
-0.983463172871 -0.765246254734 0
-0.214446014826 -0.175915881692 0
-0.312775889931 -0.233806906949 0
-0.645800855883 -0.491757964873 0
-0.373614948475 -0.270427221158 0
-0.367461074403 -0.222966833815 0
-0.528205589632 -0.37815520016 0
-0.515376332637 -0.368247269442 0
-0.65762330302 -0.506544318763 0
-0.269467725769 -0.209453109746 0
-0.553669689284 -0.40048603071 0
-0.541030430217 -0.389532894362 0
-0.992406685526 -0.875390230098 0
-0.63884304658 -0.44313970832 0
-0.599723740369 -0.443268430823 0
-0.581167221534 -0.425335231256 0
-0.592573964082 -0.436306093655 0
-0.573695675213 -0.41846900422 0
-0.561330689238 -0.407313118643 0
-0.675417912593 -0.529834663425 0
-0.530062441872 -0.201089435375 0
-0.166022689345 -0.131555822922 0
-0.554183850309 -0.307685121855 0
-0.671082053353 -0.523999914789 0
-0.663837343302 -0.51451951707 0
-0.839133639173 -0.480064599891 0
-0.778561914405 -0.611889393937 0
-0.816427041933 -0.711439186149 0
-0.444296349385 -0.269896352463 0
-0.412638238764 -0.244776055759 0
-0.618579537774 -0.462646874392 0
-0.734330099697 -0.276857832158 0
-0.719994249919 -0.588822842825 0
-0.433632486482 -0.30981239611 0
-0.769577857366 -0.564225462364 0
-0.465390371772 -0.331687485158 0
-0.192349797531 -0.157400221136 0
-0.260278971925 -0.204765647918 0
-0.728998406097 -0.462020115952 0
-0.408136078102 -0.29416862094 0
-0.576615399191 -0.392741903936 0
-0.322663435608 -0.241260047496 0
-0.788452472532 -0.437062211568 0
-0.66713614273 -0.450830764754 0
-0.62819360122 -0.473425006153 0
-0.87688731278 -0.675376690185 0
-0.648997621716 -0.496685349027 0
-0.279341735364 -0.163052676386 0
-0.244613150169 -0.197518652835 0
-0.5330625768 -0.384916961555 0
-0.713318138766 -0.525196907076 0
-0.278781204605 -0.216613262677 0
-0.939610196586 -0.581396160469 0
-0.50712683446 -0.326911880564 0
-0.388659878832 0.0723495501502 0
-0.305479589034 -0.231877043375 0
-0.702880290837 -0.567536328639 0
-0.650990027082 -0.472188357013 0
-0.963635071011 -0.860924431188 0
-0.691852803166 -0.553104739713 0
-0.390645186562 -0.282618337955 0
-0.702935984145 -0.547555455889 0
-0.590104091286 -0.233952681909 0
-0.868278291114 -0.776440102323 0
-0.230522944988 -0.159530869684 0
-0.852473384356 -0.614997643436 0
-0.360992091491 -0.263838563287 0
-0.477155622915 -0.301632694472 0
-0.238121771309 -0.195249975204 0
-0.614381070482 -0.435423380974 0
-0.292562164708 -0.19324213182 0
-0.396883446693 -0.253891506206 0
-0.532210837891 -0.351095793407 0
-0.607927825522 -0.452320461197 0
-0.70464169472 -0.491847689185 0
-0.689724514824 -0.402342198202 0
-0.924783861664 -0.833999458534 0
-0.675613606951 -0.49627165711 0
-0.880161353066 -0.728749857684 0
-0.687404794554 -0.530079166391 0
-0.622057465294 -0.386010163232 0
-0.486835377782 -0.283078635718 0
-0.326087528203 -0.196756253655 0
-0.950279880196 -0.827254122085 0
-0.635203123369 -0.454218164238 0
-0.765521335786 -0.523515934367 0
-0.740332020507 -0.618331702823 0
-0.595375497267 -0.415237867362 0
-0.388580874878 -0.218210743828 0
-0.457161996907 -0.231499835864 0
-0.640497334659 -0.408898204823 0
-0.390463969613 -0.165070151388 0
-0.55288670087 -0.373950881483 0
-0.325638643262 -0.214420418741 0
-0.968087653465 -0.416651504204 0