# vtk DataFile Version 2.0
Generated with Solid Solver
ASCII
DATASET UNSTRUCTURED_GRID
POINTS 3379 float 
0.0 0.0 0.0
10.0 0.0 0.0
10.0 20.0 0.0
-20.0 20.0 0.0
-20.0 10.0 0.0
-5.0 10.0 0.0
0.0 5.0 0.0
1.11111111111 0.0 0.0
2.22222222222 0.0 0.0
3.33333333333 0.0 0.0
4.44444444444 0.0 0.0
5.55555555555 0.0 0.0
6.66666666666 0.0 0.0
7.77777777777 0.0 0.0
8.88888888889 0.0 0.0
10.0 1.17647058823 0.0
10.0 2.35294117647 0.0
10.0 3.5294117647 0.0
10.0 4.70588235293 0.0
10.0 5.88235294116 0.0
10.0 7.0588235294 0.0
10.0 8.23529411763 0.0
10.0 9.41176470587 0.0
10.0 10.5882352941 0.0
10.0 11.7647058823 0.0
10.0 12.9411764706 0.0
10.0 14.1176470588 0.0
10.0 15.2941176471 0.0
10.0 16.4705882353 0.0
10.0 17.6470588235 0.0
10.0 18.8235294118 0.0
8.8 20.0 0.0
7.6 20.0 0.0
6.39999999999 20.0 0.0
5.19999999999 20.0 0.0
4.0 20.0 0.0
2.8 20.0 0.0
1.6 20.0 0.0
0.400000000005 20.0 0.0
-0.79999999999 20.0 0.0
-1.99999999999 20.0 0.0
-3.19999999998 20.0 0.0
-4.39999999998 20.0 0.0
-5.59999999997 20.0 0.0
-6.79999999998 20.0 0.0
-7.99999999998 20.0 0.0
-9.19999999998 20.0 0.0
-10.4 20.0 0.0
-11.6 20.0 0.0
-12.8 20.0 0.0
-14.0 20.0 0.0
-15.2 20.0 0.0
-16.4 20.0 0.0
-17.6 20.0 0.0
-18.8 20.0 0.0
-20.0 18.8888888889 0.0
-20.0 17.7777777778 0.0
-20.0 16.6666666667 0.0
-20.0 15.5555555556 0.0
-20.0 14.4444444444 0.0
-20.0 13.3333333333 0.0
-20.0 12.2222222222 0.0
-20.0 11.1111111111 0.0
-18.8650027336 10.0 0.0
-17.813310278 10.0 0.0
-16.8388083846 10.0 0.0
-15.9358314798 10.0 0.0
-15.0991299341 10.0 0.0
-14.3238392211 10.0 0.0
-13.6054522927 10.0 0.0
-12.9397923214 10.0 0.0
-12.3229895186 10.0 0.0
-11.7514578516 10.0 0.0
-11.2218745847 10.0 0.0
-10.7311608998 10.0 0.0
-10.2764639398 10.0 0.0
-9.85514009809 10.0 0.0
-9.46473993718 10.0 0.0
-9.10299376652 10.0 0.0
-8.76779846999 10.0 0.0
-8.45720535465 10.0 0.0
-8.16940869126 10.0 0.0
-7.90273530971 10.0 0.0
-7.65563480469 10.0 0.0
-7.42667061625 10.0 0.0
-7.21451157725 10.0 0.0
-7.01792427638 10.0 0.0
-6.83576580446 10.0 0.0
-6.66697710929 10.0 0.0
-6.51057691162 10.0 0.0
-6.36565595492 10.0 0.0
-6.23137167006 10.0 0.0
-6.10694339793 10.0 0.0
-5.99164772416 10.0 0.0
-5.88481433485 10.0 0.0
-5.78582216167 10.0 0.0
-5.69409565458 10.0 0.0
-5.60910153833 10.0 0.0
-5.53034570218 10.0 0.0
-5.45737027246 10.0 0.0
-5.38975097877 10.0 0.0
-5.32709470476 10.0 0.0
-5.26903718838 10.0 0.0
-5.21524088515 10.0 0.0
-5.16539304215 10.0 0.0
-5.11920385255 10.0 0.0
-5.07640479059 10.0 0.0
-5.03674702257 10.0 0.0
-4.96413737767 9.99987138558 0.0
-4.92827660031 9.99948554893 0.0
-4.89241951282 9.9988425099 0.0
-4.85656795989 9.99794230157 0.0
-4.82072378593 9.99678497027 0.0
-4.78488883498 9.99537057551 0.0
-4.74906495058 9.99369919008 0.0
-4.71325397573 9.99177089995 0.0
-4.67745775275 9.98958580433 0.0
-4.64167812321 9.98714401563 0.0
-4.60591692781 9.98444565947 0.0
-4.57017600631 9.98149087467 0.0
-4.53445719745 9.97827981325 0.0
-4.49876233879 9.97481264039 0.0
-4.46309326668 9.97108953447 0.0
-4.42745181616 9.96711068703 0.0
-4.39183982081 9.96287630276 0.0
-4.35625911274 9.9583865995 0.0
-4.32071152241 9.95364180823 0.0
-4.2851988786 9.94864217305 0.0
-4.24972300828 9.94338795116 0.0
-4.21428573654 9.93787941288 0.0
-4.17888888647 9.9321168416 0.0
-4.1435342791 9.92610053378 0.0
-4.10822373326 9.91983079893 0.0
-4.07295906554 9.9133079596 0.0
-4.03774209015 9.90653235136 0.0
-4.00257461886 9.89950432279 0.0
-3.96745846088 9.89222423546 0.0
-3.9323954228 9.88469246389 0.0
-3.89738730846 9.87690939556 0.0
-3.86243591888 9.86887543087 0.0
-3.82754305215 9.86059098315 0.0
-3.79271050337 9.85205647858 0.0
-3.75794006453 9.84327235624 0.0
-3.72323352442 9.83423906803 0.0
-3.68859266854 9.82495707867 0.0
-3.65401927902 9.81542686568 0.0
-3.61951513452 9.80564891936 0.0
-3.58508201011 9.79562374274 0.0
-3.55072167726 9.78535185156 0.0
-3.51643590364 9.77483377428 0.0
-3.48222645311 9.764070052 0.0
-3.44809508561 9.75306123848 0.0
-3.41404355706 9.74180790006 0.0
-3.38007361925 9.73031061569 0.0
-3.3461870198 9.71856997686 0.0
-3.31238550203 9.70658658757 0.0
-3.27867080489 9.69436106431 0.0
-3.24504466285 9.68189403603 0.0
-3.21150880584 9.66918614412 0.0
-3.17806495913 9.65623804233 0.0
-3.14471484327 9.6430503968 0.0
-3.11146017398 9.62962388597 0.0
-3.07830266208 9.61595920058 0.0
-3.04524401337 9.60205704362 0.0
-3.01228592859 9.5879181303 0.0
-2.97943010329 9.573543188 0.0
-2.94667822776 9.55893295626 0.0
-2.91403198694 9.5440881867 0.0
-2.88149306036 9.52900964303 0.0
-2.84906312199 9.51369810098 0.0
-2.81674384022 9.49815434826 0.0
-2.78453687775 9.48237918454 0.0
-2.75244389148 9.46637342136 0.0
-2.72046653246 9.45013788218 0.0
-2.6886064458 9.43367340222 0.0
-2.65686527055 9.41698082853 0.0
-2.62524463967 9.40006101987 0.0
-2.59374617991 9.38291484668 0.0
-2.56237151172 9.36554319107 0.0
-2.53112224921 9.34794694674 0.0
-2.50000000001 9.33012701893 0.0
-2.46900636523 9.3120843244 0.0
-2.43814293936 9.29381979138 0.0
-2.40741131021 9.2753343595 0.0
-2.37681305877 9.25662897976 0.0
-2.3463497592 9.23770461447 0.0
-2.3160229787 9.2185622372 0.0
-2.28583427747 9.19920283276 0.0
-2.25578520858 9.1796273971 0.0
-2.22587731793 9.15983693729 0.0
-2.19611214416 9.13983247147 0.0
-2.16649121855 9.11961502879 0.0
-2.13701606498 9.09918564935 0.0
-2.10768819982 9.07854538415 0.0
-2.07850913186 9.05769529504 0.0
-2.04948036225 9.03663645468 0.0
-2.02060338439 9.01536994646 0.0
-1.99187968388 8.99389686444 0.0
-1.96331073843 8.97221831332 0.0
-1.9348980178 8.95033540838 0.0
-1.90664298369 8.9282492754 0.0
-1.87854708972 8.90596105061 0.0
-1.85061178129 8.88347188065 0.0
-1.82283849556 8.8607829225 0.0
-1.79522866134 8.8378953434 0.0
-1.76778369905 8.81481032082 0.0
-1.74050502061 8.7915290424 0.0
-1.7133940294 8.76805270584 0.0
-1.68645212016 8.74438251892 0.0
-1.65968067894 8.72051969936 0.0
-1.63308108301 8.69646547481 0.0
-1.60665470082 8.67222108274 0.0
-1.58040289188 8.64778777044 0.0
-1.55432700675 8.62316679489 0.0
-1.52842838691 8.59835942274 0.0
-1.50270836475 8.57336693022 0.0
-1.47716826344 8.54819060309 0.0
-1.45180939692 8.52283173657 0.0
-1.42663306979 8.49729163526 0.0
-1.40164057727 8.4715716131 0.0
-1.37683320512 8.44567299326 0.0
-1.35221222957 8.41959710813 0.0
-1.32777891727 8.39334529919 0.0
-1.30353452521 8.366918917 0.0
-1.27948030065 8.34031932107 0.0
-1.25561748109 8.31354787985 0.0
-1.23194729417 8.28660597061 0.0
-1.20847095761 8.2594949794 0.0
-1.18518967919 8.23221630096 0.0
-1.16210465661 8.20477133867 0.0
-1.13921707751 8.17716150446 0.0
-1.11652811936 8.14938821872 0.0
-1.0940389494 8.12145291029 0.0
-1.07175072461 8.09335701632 0.0
-1.04966459163 8.06510198221 0.0
-1.02778168669 8.03668926158 0.0
-1.00610313557 8.00812031613 0.0
-0.984630053552 7.97939661562 0.0
-0.963363545327 7.95051963776 0.0
-0.942304704967 7.92149086815 0.0
-0.921454615862 7.89231180019 0.0
-0.90081435066 7.86298393503 0.0
-0.880384971216 7.83350878146 0.0
-0.860167528534 7.80388785585 0.0
-0.840163062717 7.77412268208 0.0
-0.82037260291 7.74421479143 0.0
-0.800797167248 7.71416572254 0.0
-0.781437762805 7.68397702131 0.0
-0.762295385539 7.65365024081 0.0
-0.743371020246 7.62318694124 0.0
-0.724665640503 7.5925886898 0.0
-0.706180208624 7.56185706065 0.0
-0.687915675605 7.53099363478 0.0
-0.66987298108 7.5 0.0
-0.652053053269 7.4688777508 0.0
-0.634456808932 7.43762848829 0.0
-0.617085153321 7.4062538201 0.0
-0.599938980135 7.37475536034 0.0
-0.58301917147 7.34313472946 0.0
-0.566326597781 7.31139355421 0.0
-0.549862117829 7.27953346755 0.0
-0.533626578641 7.24755610853 0.0
-0.517620815469 7.21546312226 0.0
-0.50184565174 7.18325615978 0.0
-0.486301899021 7.15093687802 0.0
-0.470990356971 7.11850693965 0.0
-0.455911813304 7.08596801306 0.0
-0.441067043748 7.05332177225 0.0
-0.426456812003 7.02056989672 0.0
-0.412081869704 6.98771407142 0.0
-0.397942956381 6.95475598663 0.0
-0.384040799421 6.92169733793 0.0
-0.370376114032 6.88853982602 0.0
-0.356949603203 6.85528515674 0.0
-0.343761957671 6.82193504088 0.0
-0.330813855886 6.78849119417 0.0
-0.318105963973 6.75495533716 0.0
-0.305638935697 6.72132919512 0.0
-0.293413412437 6.68761449797 0.0
-0.281430023142 6.6538129802 0.0
-0.269689384307 6.61992638075 0.0
-0.25819209994 6.58595644295 0.0
-0.246938761526 6.55190491439 0.0
-0.235929948002 6.51777354689 0.0
-0.225166225724 6.48356409637 0.0
-0.214648148442 6.44927832275 0.0
-0.204376257265 6.41491798989 0.0
-0.194351080639 6.38048486549 0.0
-0.184573134316 6.34598072098 0.0
-0.175042921332 6.31140733146 0.0
-0.165760931974 6.27676647558 0.0
-0.156727643762 6.24205993547 0.0
-0.14794352142 6.20728949663 0.0
-0.139409016855 6.17245694785 0.0
-0.13112456913 6.13756408113 0.0
-0.123090604445 6.10261269154 0.0
-0.115307536114 6.0676045772 0.0
-0.107775764543 6.03254153912 0.0
-0.100495677209 5.99742538114 0.0
-0.093467648642 5.96225790985 0.0
-0.0866920404046 5.92704093447 0.0
-0.080169201073 5.89177626674 0.0
-0.0738994662197 5.85646572091 0.0
-0.067883158396 5.82111111353 0.0
-0.0621205871156 5.78571426346 0.0
-0.0566120488383 5.75027699172 0.0
-0.0513578269551 5.7148011214 0.0
-0.0463581917735 5.67928847759 0.0
-0.0416134005035 5.64374088726 0.0
-0.0371236972447 5.60816017919 0.0
-0.0328893129732 5.57254818384 0.0
-0.0289104655302 5.53690673332 0.0
-0.0251873596105 5.50123766122 0.0
-0.0217201867523 5.46554280255 0.0
-0.0185091253269 5.42982399369 0.0
-0.0155543405298 5.39408307219 0.0
-0.0128559843721 5.35832187679 0.0
-0.010414195673 5.32254224725 0.0
-0.00822910005203 5.28674602427 0.0
-0.00630080992318 5.25093504942 0.0
-0.00462942448881 5.21511116502 0.0
-0.00321502973463 5.17927621407 0.0
-0.00205769842527 5.14343204011 0.0
-0.00115749010052 5.10758048718 0.0
-0.000514451072299 5.07172339969 0.0
-0.000128614422241 5.03586262233 0.0
0.0 4.96210871268 0.0
0.0 4.91493291879 0.0
0.0 4.85619761383 0.0
0.0 4.78307039291 0.0
0.0 4.69202478373 0.0
0.0 4.57867022864 0.0
0.0 4.43754040407 0.0
0.0 4.26182947167 0.0
0.0 4.043064028 0.0
0.0 3.77069445193 0.0
0.0 3.43158604656 0.0
0.0 3.0093857748 0.0
[...]
POINT_DATA 3379
VECTORS Displacement float
0.0 0.0 0
0.0 0.0 0
-0.927256887669 0.199331872318 0
-0.8 -0.70979081542 0
-0.8 -0.680381195264 0
-0.541785090728 -0.431015522384 0
-0.185397170707 -0.157663788383 0
0.0 0.0 0
0.0 0.0 0
0.0 0.0 0
0.0 0.0 0
0.0 0.0 0
0.0 0.0 0
0.0 0.0 0
0.0 0.0 0
-0.0478638453134 0.0483170800248 0
-0.0856483753625 0.0844002179322 0
-0.129351315338 0.115809018483 0
-0.176913171869 0.141506017484 0
-0.22997929513 0.163284250505 0
-0.287493562542 0.179817882187 0
-0.34633603287 0.191805323858 0
-0.407661571397 0.20025459957 0
-0.46829414168 0.205237283171 0
-0.528972310008 0.207369609266 0
-0.588540754051 0.207762277025 0
-0.64703529166 0.207048760995 0
-0.704305468223 0.205590632395 0
-0.760754752197 0.20382088198 0
-0.816396872359 0.202213822222 0
-0.871862216879 0.200669190553 0
-0.92588429816 0.142737551121 0
-0.92430160838 0.0861922732468 0
-0.922645180536 0.0298253607393 0
-0.920830062551 -0.0260521717486 0
-0.918881925262 -0.0814773827751 0
-0.916515188957 -0.136388798588 0
-0.913903794078 -0.190480434591 0
-0.910662436829 -0.243685558786 0
-0.906673432142 -0.295175667547 0
-0.901718850405 -0.344871992598 0
-0.895779552294 -0.392454091024 0
-0.889079599874 -0.436738595273 0
-0.882145144137 -0.477917513319 0
-0.875012697936 -0.515653857122 0
-0.867681941703 -0.549886030218 0
-0.860238254167 -0.580661177967 0
-0.853108943881 -0.607958786984 0
-0.845562732092 -0.631760394499 0
-0.839054046763 -0.652840170764 0
-0.83205553772 -0.669891251336 0
-0.825661244232 -0.684159943758 0
-0.81904213633 -0.695393422205 0
-0.812655865809 -0.702408100191 0
-0.806094070716 -0.70759932998 0
-0.8 -0.711260198415 0
-0.8 -0.712079177741 0
-0.8 -0.711447637619 0
-0.8 -0.709791529371 0
-0.8 -0.706482431764 0
-0.8 -0.701774755157 0
-0.8 -0.696036554375 0
-0.8 -0.688559671572 0
-0.781104152234 -0.678706661069 0
-0.763102595428 -0.675025637455 0
-0.746861051976 -0.669251764824 0
-0.731536376623 -0.661924945509 0
-0.717182654064 -0.653499007387 0
-0.704146482212 -0.644359330563 0
-0.692088857009 -0.634640243089 0
-0.680844686135 -0.624551349515 0
-0.670273555743 -0.614422490112 0
-0.66059860538 -0.604204879754 0
-0.651638190244 -0.594154942622 0
-0.643280568604 -0.584237287658 0
-0.635598631628 -0.574568021859 0
-0.628384886974 -0.565257987734 0
-0.62172145223 -0.556245911242 0
-0.61555525603 -0.547603133753 0
-0.609827708412 -0.539333965582 0
-0.604505556716 -0.531459390128 0
-0.59958239371 -0.523976088246 0
-0.594999015549 -0.516895583683 0
-0.590697021703 -0.510234687074 0
-0.586721289111 -0.503925866412 0
-0.583008239343 -0.49799214065 0
-0.579574045839 -0.492401793134 0
-0.576356718969 -0.487159909944 0
-0.573349270531 -0.482244773812 0
-0.570557392266 -0.477638256268 0
-0.567956333037 -0.473324796042 0
-0.56552549556 -0.46929957936 0
-0.563261024585 -0.465535543014 0
-0.561143727569 -0.462034743331 0
-0.559169309887 -0.45876358458 0
-0.557320850461 -0.45571902321 0
-0.555598335509 -0.452875104526 0
-0.553984563787 -0.4502358662 0
-0.552477524856 -0.447781188383 0
-0.551067246709 -0.445496086806 0
-0.549749072496 -0.443372206546 0
-0.548514224034 -0.441395716598 0
-0.547357747879 -0.439565191743 0
-0.546275680921 -0.437860867075 0
-0.545260873052 -0.436282415786 0
-0.544309687234 -0.434812504766 0
-0.543416901296 -0.433450605934 0
-0.542577775441 -0.432184918306 0
-0.540996232742 -0.429863563199 0
-0.54018363132 -0.428715481611 0
-0.539354760593 -0.427553162743 0
-0.538502728632 -0.42638843962 0
-0.537640559752 -0.425214181197 0
-0.536760934894 -0.424038603999 0
-0.535870228384 -0.422857559285 0
-0.534958196355 -0.421670737293 0
-0.534040448994 -0.42047882331 0
-0.533107658899 -0.419275227181 0
-0.532153996928 -0.418076052661 0
-0.531193768984 -0.416861941939 0
-0.530214230971 -0.415647742889 0
-0.52922766133 -0.414430768174 0
-0.528231959539 -0.413206646541 0
-0.527219344108 -0.411976516332 0
-0.526190657848 -0.41074512525 0
-0.525155578019 -0.409505056883 0
-0.52410537788 -0.408261446792 0
-0.523048017804 -0.407019702455 0
-0.521979562054 -0.405765061751 0
-0.520892095902 -0.404510516255 0
-0.519800551607 -0.403245651681 0
-0.518693902553 -0.401980401558 0
-0.517579906928 -0.40070865764 0
-0.516452335724 -0.399434758084 0
-0.515317509167 -0.398157816135 0
-0.51416907698 -0.396877116646 0
-0.513013382547 -0.395596515397 0
-0.511841547586 -0.39430706963 0
-0.510662428828 -0.393015931878 0
-0.50947493192 -0.391719666412 0
-0.508272483929 -0.390420365479 0
-0.507066975628 -0.389120837148 0
-0.505845700888 -0.387815744416 0
-0.504611955076 -0.386508785569 0
-0.50337331043 -0.385200016614 0
-0.502118895853 -0.383885981871 0
-0.500859284972 -0.382565273856 0
-0.499592999831 -0.38124410118 0
-0.498315199954 -0.379923917778 0
-0.497022462552 -0.378600608199 0
-0.495724225911 -0.377269567209 0
-0.494411970568 -0.375937306567 0
-0.493096229672 -0.37460804146 0
-0.491772459122 -0.37327357374 0
-0.490435874416 -0.371932154192 0
-0.489086845207 -0.370595047489 0
-0.487732127915 -0.369254125864 0
-0.4863632779 -0.367908898981 0
-0.484991716586 -0.366566909163 0
-0.483612397803 -0.365219306126 0
-0.482219378925 -0.363867047657 0
-0.480816267081 -0.362517473443 0
-0.479410177137 -0.361168187282 0
-0.477989389124 -0.359814125131 0
-0.476556584202 -0.358459635511 0
-0.475119751168 -0.357104498251 0
-0.473678170509 -0.35574676757 0
-0.47222062117 -0.354388762493 0
-0.470762077288 -0.353031557435 0
-0.469291844925 -0.351665297283 0
-0.467808611003 -0.350308309472 0
-0.466320900814 -0.348942544197 0
-0.464818914783 -0.34757753205 0
-0.463314316159 -0.346215355213 0
-0.461803509179 -0.3448489092 0
-0.460281714813 -0.343481564316 0
-0.458747410321 -0.342116474571 0
-0.457211346381 -0.340751387803 0
-0.455660367833 -0.339383691482 0
-0.454109235876 -0.338013476289 0
-0.452544136428 -0.336648615951 0
-0.450974205895 -0.335277714875 0
-0.449390529442 -0.333907276983 0
-0.447804931764 -0.33254008304 0
-0.446213763799 -0.331169812198 0
-0.444612368652 -0.329799819203 0
-0.442999309617 -0.328432700715 0
-0.441385888689 -0.327069153867 0
-0.439756635827 -0.325701372946 0
-0.438128724503 -0.324333219895 0
-0.436485089984 -0.32296793685 0
-0.434838002849 -0.321597600111 0
-0.433180857973 -0.320230038638 0
-0.43151979013 -0.318864350597 0
-0.429846816535 -0.317498213358 0
-0.42817264567 -0.316135307508 0
-0.42648577692 -0.314769370723 0
-0.424797670431 -0.313406553461 0
-0.423097484784 -0.312043868606 0
-0.421393800292 -0.310682797394 0
-0.419679464804 -0.309320721622 0
-0.417963363235 -0.307962555428 0
-0.416235727088 -0.306602172247 0
-0.414506117344 -0.305244476836 0
-0.412765832491 -0.303886984342 0
-0.411022515967 -0.30253303693 0
-0.409268894186 -0.301177806816 0
-0.407514371081 -0.299826837969 0
-0.405747539384 -0.298473292929 0
-0.403981702423 -0.297124394661 0
-0.40220317887 -0.295775545825 0
-0.400423259016 -0.294428438671 0
-0.398633224137 -0.293081967032 0
-0.39683910794 -0.291739967273 0
-0.395040527578 -0.290397294261 0
-0.393235412069 -0.289058290642 0
-0.391425455747 -0.287719160013 0
-0.389606386238 -0.286377428564 0
-0.387785806752 -0.285043772046 0
-0.385955280317 -0.283711758169 0
-0.384124822246 -0.282379435617 0
-0.382284281001 -0.281047205227 0
-0.380442596032 -0.279720536562 0
-0.378595754581 -0.278393270531 0
-0.376745232992 -0.277068357788 0
-0.374886250638 -0.275746737552 0
-0.373025196445 -0.274428875306 0
-0.371153918803 -0.273108665548 0
-0.3692842677 -0.271793075483 0
-0.367405237194 -0.270476707735 0
-0.36552769575 -0.269166070498 0
-0.363640106836 -0.267855399499 0
-0.361751844232 -0.266548005281 0
-0.359862134239 -0.265243791371 0
-0.357963666379 -0.263939634784 0
-0.356065191438 -0.262641105486 0
-0.354158227452 -0.261340622862 0
-0.352255159529 -0.260046940878 0
-0.350343006718 -0.258752864993 0
-0.348431997465 -0.257465244779 0
-0.346509959881 -0.256174967962 0
-0.344589998945 -0.254888329975 0
-0.342665112973 -0.253602202272 0
-0.340742051515 -0.252323864141 0
-0.338809640799 -0.251044444303 0
-0.336880038932 -0.249770095718 0
-0.334944938797 -0.248497429616 0
-0.333006961519 -0.247227065571 0
-0.331067761747 -0.245959233867 0
-0.329125214871 -0.244693229942 0
-0.327183673206 -0.243429027516 0
-0.325235038518 -0.242165648239 0
-0.32329086724 -0.240908709002 0
-0.321339485343 -0.239650474641 0
-0.31939348271 -0.238399763225 0
-0.317437368482 -0.23714773775 0
-0.315484564768 -0.235901773819 0
-0.313528556598 -0.234655316375 0
-0.311573353614 -0.233414648068 0
-0.309620978846 -0.23217897873 0
-0.307660386949 -0.23093986098 0
-0.305706277337 -0.229706968057 0
-0.30374677703 -0.22847671811 0
-0.30179085857 -0.227249368235 0
-0.299830181081 -0.226023550169 0
-0.297872566411 -0.22480024952 0
-0.295914679111 -0.223580630854 0
-0.29396041845 -0.22236488655 0
-0.292002809074 -0.221148408226 0
-0.290048258053 -0.219936272772 0
-0.288099210302 -0.218730661678 0
-0.286142749026 -0.217526734935 0
-0.284192136238 -0.216326601217 0
-0.282242680043 -0.215125394896 0
-0.280290492885 -0.21393073876 0
-0.278340269876 -0.21273951587 0
-0.276393958017 -0.211551145419 0
-0.274454066409 -0.210363459978 0
-0.272510895211 -0.209179454335 0
-0.270570131167 -0.20800256779 0
-0.268630212743 -0.206824460384 0
-0.266693490708 -0.205647996173 0
-0.264767269622 -0.204480378937 0
-0.262838794829 -0.203311258099 0
-0.260917843857 -0.202150154501 0
-0.258992827581 -0.200988970317 0
-0.257075353787 -0.199834817766 0
-0.255155958444 -0.198677542518 0
-0.253247264294 -0.197529520969 0
-0.251345088525 -0.196387935773 0
-0.249437180153 -0.195242996945 0
-0.247542848911 -0.194104691302 0
-0.245648092059 -0.192968110996 0
-0.243764071186 -0.191838987261 0
-0.241881774176 -0.190709877345 0
-0.240010519892 -0.18959076851 0
-0.238137218138 -0.188471859585 0
-0.236272343108 -0.187362324865 0
-0.234408732038 -0.186250717709 0
-0.232553665665 -0.185150387577 0
-0.230707731034 -0.184055715369 0
-0.228860399901 -0.182955481757 0
-0.227022346895 -0.181862705127 0
-0.225187404621 -0.180779300024 0
-0.223367769614 -0.1797001627 0
-0.22154885379 -0.17861940452 0
-0.219743709702 -0.177549089893 0
-0.21794241908 -0.176481129401 0
-0.216150587425 -0.175423570404 0
-0.214364603287 -0.174366101671 0
-0.21258824952 -0.173321243202 0
-0.210827443917 -0.17228350707 0
-0.209063378387 -0.171244838379 0
-0.207313323297 -0.170219040597 0
-0.205567093777 -0.169192752704 0
-0.203831567054 -0.168177697149 0
-0.202107655286 -0.167174813595 0
-0.2003924735 -0.166179025721 0
-0.198691597362 -0.165190825058 0
-0.196992231157 -0.164207272461 0
-0.195307812837 -0.1632345886 0
-0.193630083282 -0.162273740187 0
-0.191960859077 -0.161323019732 0
-0.19030894551 -0.16038700244 0
-0.188663953055 -0.159460583537 0
-0.187026338927 -0.158551217751 0
-0.183686074616 -0.156733908223 0
-0.1815671283 -0.155581980219 0
-0.178936241046 -0.15415830792 0
-0.175680145643 -0.152389277987 0
-0.171667053029 -0.150178431705 0
-0.166726708195 -0.147404974262 0
-0.160673210158 -0.143927551203 0
-0.153276431956 -0.139562411863 0
-0.144256538083 -0.134083990457 0
-0.133262518694 -0.12701221701 0
-0.120109803744 -0.118117744678 0
-0.104493071453 -0.106409733353 0
-0.0864548253328 -0.091526350429 0
-0.0647707313466 -0.0713633493426 0
-0.0396969605489 -0.0431725362701 0
-0.605457192198 -0.090972550117 0
-0.338518301605 -0.01842869904 0
-0.693658328753 -0.32836863766 0
-0.720917616251 -0.507994677738 0
-0.162919998854 -0.0358270447182 0
-0.455195573617 -0.141677541541 0
-0.562946549475 -0.270793945373 0
-0.615545719958 -0.385893856495 0
-0.314894429854 -0.102234911387 0
-0.636979016967 -0.47156328221 0
-0.212365849396 -0.0928231083218 0
-0.385614611321 -0.174802836382 0
-0.469887181484 -0.24304396402 0
-0.515446407727 -0.311216017221 0
-0.552837769476 -0.368913066729 0
-0.588904139899 -0.425642848441 0
-0.310092650918 -0.157757982975 0
-0.248382692513 -0.138714972789 0
-0.34952512227 -0.196509329232 0
-0.406804097705 -0.231576060202 0
-0.443366757226 -0.270993961752 0
-0.474493645738 -0.306089079393 0
-0.504900786699 -0.33979888644 0
-0.198997367477 -0.124301628188 0
-0.551505684462 -0.401856342558 0
-0.56220393506 -0.427191736224 0
-0.59196439477 -0.464151309468 0
-0.51950086337 -0.367779097804 0
-0.309631983263 -0.189723392423 0
-0.273209770514 -0.171964098641 0
-0.746942965771 -0.630264876465 0
-0.369142111462 -0.229243552038 0
-0.669886705422 -0.547896663337 0
-0.392113709546 -0.253667228433 0
-0.413091739853 -0.271550705601 0
-0.525893650705 -0.38698211055 0
-0.124065971063 -0.0704600952674 0
-0.432607030701 -0.29056002534 0
-0.24652921273 -0.164559271239 0
-0.218764561774 -0.150088492379 0
-0.568413397568 -0.446531526982 0
-0.536327131256 -0.403492040447 0
-0.328311591376 -0.212476666734 0
-0.448663765446 -0.306898037938 0
-0.468209952062 -0.323707626245 0
-0.481321770367 -0.339597257684 0
-0.495728179451 -0.355409391106 0
-0.622304014251 -0.507680582567 0
-0.543439357898 -0.416713955816 0
-0.551911580688 -0.429365090786 0
-0.197405985973 -0.143958339074 0
-0.163266443301 -0.116196170376 0
-0.344254400768 -0.228531308688 0
-0.289834761754 -0.194285798216 0
-0.17924174993 -0.13787455462 0
-0.304034252062 -0.206649311185 0
-0.503604152999 -0.3685664931 0
-0.370052522405 -0.2487276918 0
-0.50968214891 -0.378350790905 0
-0.555265243161 -0.438869320051 0
-0.272483815369 -0.190212959055 0
-0.25721709703 -0.183015905327 0
-0.394425934959 -0.268922010807 0
-0.582582546058 -0.332071428273 0
-0.52300927314 -0.394378151787 0
-0.765525802384 -0.683199599814 0
-0.352987938393 -0.241844083433 0
-0.57366867412 -0.461571974454 0
-0.595168493825 -0.486973589138 0
-0.232815099963 -0.168355939253 0
-0.414357200343 -0.285726263181 0
-0.378215164052 -0.26147230395 0
-0.686874409873 -0.598601716047 0
-0.451967962135 -0.31938255643 0
-0.690802098765 -0.440954074348 0
-0.209161976905 -0.156791484357 0
-0.24463961096 -0.178235622151 0
-0.466664847315 -0.334843966161 0
-0.431161067673 -0.304057570063 0
-0.481371641807 -0.349783654077 0
-0.533082569856 -0.409120628744 0
-0.32957181366 -0.228460594955 0
-0.316672599437 -0.220095219871 0
-0.541781653123 -0.42194162666 0
-0.220599765954 -0.166221632921 0
-0.479797130473 -0.0451459447249 0
-0.653586258573 -0.215286468354 0
-0.400794626074 -0.278948002107 0
-0.584405927559 -0.396971868486 0
-0.419682617074 -0.295641083066 0
-0.525052193164 -0.400848728028 0
-0.51444417671 -0.387446927394 0
-0.440542715373 -0.313387616683 0
-0.4721421182 -0.342931089757 0
-0.48703696521 -0.357656230026 0
-0.456338520264 -0.328364935454 0
-0.544672090362 -0.427699522457 0
-0.53584625818 -0.415351547081 0
-0.515979949376 -0.202056819099 0
-0.632047998708 -0.537618413178 0
-0.190822841873 -0.150060438276 0
-0.293473910054 -0.208364177614 0
-0.282984961051 -0.202634722848 0
-0.20083638401 0.0463065858672 0
-0.434821976476 -0.202494553548 0
-0.383237278381 -0.205010917948 0
-0.63831578393 -0.432062325939 0
-0.385765156227 -0.120669040196 0
-0.769801453709 -0.136485004476 0
-0.712013125007 0.0297884187968 0
-0.587185651811 -0.445055630488 0
-0.558637146329 -0.446629801775 0
-0.725379092802 -0.647214520625 0
-0.482248537002 -0.276660017396 0
-0.199596622207 -0.156469043546 0
-0.500842369116 -0.373619909531 0
-0.786893737503 -0.402626901117 0
-0.278253957753 -0.117827591199 0
-0.182618988563 -0.148068644696 0
-0.357800029766 -0.251788286124 0
-0.342072334073 -0.240535356229 0
-0.307008754655 -0.218802404895 0
-0.492679282802 -0.364763436685 0
-0.250618463617 -0.07341281023 0
-0.734469775292 -0.578282040469 0
-0.455994358366 -0.291815739087 0
-0.382881321375 -0.269904599682 0
-0.367770128025 -0.258393488871 0
-0.345021147377 -0.139007666375 0
-0.537006932203 -0.340599134367 0
-0.433067674176 0.0676814475022 0
-0.546349190324 -0.432033908087 0
-0.39002524538 -0.275885184169 0
-0.545209749821 -0.137642546881 0
-0.757173959351 -0.247495557757 0
-0.264044568024 -0.193833106489 0
-0.0760730095779 0.00962933007215 0
-0.628880264115 -0.300517890988 0
-0.550397085701 -0.437645047308 0
-0.58160867401 0.0168202385571 0
-0.48885779521 -0.322754227686 0
-0.170512591229 -0.0936286510859 0
-0.346213476738 -0.166660955655 0
-0.541766221996 -0.381902050939 0
-0.41412065213 -0.251540190157 0
-0.789914256321 -0.672134173909 0
-0.658735070678 -0.512311594552 0
-0.332902513893 -0.2362470593 0
-0.320825943438 -0.228948983362 0
-0.349245995094 -0.0689249144291 0
-0.426055283632 -0.0866996734099 0
-0.328127724888 -0.176864816371 0
-0.278336999355 -0.148110269426 0
-0.794348465361 -0.546024219779 0
-0.55153670336 -0.412217690052 0
-0.404026932929 -0.28686760353 0
-0.274158610917 -0.199755344314 0
-0.22834365973 -0.173515181936 0
-0.236604146745 -0.178332854134 0
-0.241775601371 -0.018586468353 0
-0.506730478907 -0.381767331263 0
-0.519656559177 -0.260178990123 0
-0.0533663613093 -0.036466862336 0
-0.609560045872 -0.513472753519 0
-0.0761538151172 -0.0187978897932 0
-0.78784541958 -0.612458927545 0
-0.171173577423 -0.140228787209 0
-0.249639557024 -0.186355937898 0
-0.516102305065 -0.392769472598 0
-0.298256537745 -0.215543822854 0
-0.293037919385 -0.177582746584 0
-0.421979721244 -0.301615022639 0
-0.411706899949 -0.293685883212 0
-0.525545714486 -0.404663563052 0
-0.215074174101 -0.166948606593 0
-0.442371007559 -0.31951082083 0
-0.432250362382 -0.310733330198 0
-0.794315454295 -0.702018583209 0
-0.510666590818 -0.353452593636 0
-0.479239161164 -0.353825045036 0
-0.464386293584 -0.339435041582 0
-0.473516714859 -0.348237732586 0
-0.458404745872 -0.333928506081 0
-0.448505037175 -0.324983704317 0
-0.539753921117 -0.423404899013 0
-0.422809984403 -0.159379672332 0
-0.132463967106 -0.104975515402 0
-0.442527284429 -0.244723238792 0
-0.536292346815 -0.418708796873 0
-0.530507758192 -0.411080080556 0
-0.671571445877 -0.382287248798 0
-0.622797400269 -0.489190143172 0
-0.652925958787 -0.569742082581 0
-0.354544808381 -0.214874314575 0
-0.329159031348 -0.194869955348 0
-0.494326201389 -0.369384932483 0
-0.586787271373 -0.219237788792 0
-0.575459874241 -0.470887487522 0
-0.346270687138 -0.246974746063 0
-0.615691255612 -0.450625984382 0
-0.37168857155 -0.26445041773 0
-0.153516581003 -0.12550824229 0
-0.207747579636 -0.163210670114 0
-0.583078074113 -0.368210225769 0
-0.325878598113 -0.234492106469 0
-0.460742474799 -0.313107109024 0
-0.257550473586 -0.192296729581 0
-0.630762141786 -0.347826517407 0
-0.533387731148 -0.359498693664 0
-0.502013387262 -0.378046564937 0
-0.70201559792 -0.540079430399 0
-0.518648230809 -0.396739131101 0
-0.222585971331 -0.130000483369 0
-0.195264635654 -0.157424832573 0
-0.4258722787 -0.307051177317 0
-0.570433230075 -0.419371492562 0
-0.222521767649 -0.172651174383 0
-0.752545402816 -0.463691890421 0
-0.404978691044 -0.260401996542 0
-0.309009412302 0.0586933280831 0
-0.243832691862 -0.184818143249 0
-0.561720485821 -0.453756581859 0
-0.520382403035 -0.376874522892 0
-0.770949084 -0.690687212894 0
-0.552881655325 -0.442141402994 0
-0.311886139996 -0.225273678029 0
-0.561932175334 -0.437559017906 0
-0.471005982382 -0.185433578819 0
-0.694534880202 -0.622287989638 0
-0.183801553228 -0.127256924874 0
-0.682420088252 -0.491278607663 0
-0.288174165728 -0.210294309726 0
-0.380930720686 -0.24021148813 0
-0.190098463005 -0.155607130068 0
-0.491030324174 -0.347370071977 0
-0.233281031099 -0.154042846445 0
-0.31665850675 -0.202228765609 0
-0.425114692664 -0.279753917183 0
-0.485800937211 -0.361097887908 0
-0.563514211614 -0.392437023514 0
-0.551438407096 -0.320269766173 0
-0.739828416272 -0.668890926607 0
-0.540135153945 -0.396202839975 0
-0.704496479976 -0.583387590386 0
-0.549477121725 -0.423508376587 0
-0.497139042844 -0.307428208429 0
-0.388571192471 -0.225267372101 0
-0.259952703485 -0.15677025206 0
-0.760701065595 -0.663089189817 0
-0.507728508317 -0.362437460041 0
-0.612467774922 -0.417707990559 0
-0.59176488385 -0.494670808692 0
-0.475792044515 -0.331169402925 0
-0.309836157467 -0.17370251703 0
-0.364626954291 -0.184052085954 0
-0.511969743525 -0.325790013841 0
-0.311100835289 -0.131201736554 0
-0.441713755606 -0.298074296985 0
-0.259709999079 -0.170872586961 0
-0.774990490634 -0.33069845314 0