# vtk DataFile Version 2.0
Generated with Solid Solver
ASCII
DATASET UNSTRUCTURED_GRID
POINTS 3379 float 
0.0 0.0 0.0
10.0 0.0 0.0
10.0 20.0 0.0
-20.0 20.0 0.0
-20.0 10.0 0.0
-5.0 10.0 0.0
0.0 5.0 0.0
1.11111111111 0.0 0.0
2.22222222222 0.0 0.0
3.33333333333 0.0 0.0
4.44444444444 0.0 0.0
5.55555555555 0.0 0.0
6.66666666666 0.0 0.0
7.77777777777 0.0 0.0
8.88888888889 0.0 0.0
10.0 1.17647058823 0.0
10.0 2.35294117647 0.0
10.0 3.5294117647 0.0
10.0 4.70588235293 0.0
10.0 5.88235294116 0.0
10.0 7.0588235294 0.0
10.0 8.23529411763 0.0
10.0 9.41176470587 0.0
10.0 10.5882352941 0.0
10.0 11.7647058823 0.0
10.0 12.9411764706 0.0
10.0 14.1176470588 0.0
10.0 15.2941176471 0.0
10.0 16.4705882353 0.0
10.0 17.6470588235 0.0
10.0 18.8235294118 0.0
8.8 20.0 0.0
7.6 20.0 0.0
6.39999999999 20.0 0.0
5.19999999999 20.0 0.0
4.0 20.0 0.0
2.8 20.0 0.0
1.6 20.0 0.0
0.400000000005 20.0 0.0
-0.79999999999 20.0 0.0
-1.99999999999 20.0 0.0
-3.19999999998 20.0 0.0
-4.39999999998 20.0 0.0
-5.59999999997 20.0 0.0
-6.79999999998 20.0 0.0
-7.99999999998 20.0 0.0
-9.19999999998 20.0 0.0
-10.4 20.0 0.0
-11.6 20.0 0.0
-12.8 20.0 0.0
-14.0 20.0 0.0
-15.2 20.0 0.0
-16.4 20.0 0.0
-17.6 20.0 0.0
-18.8 20.0 0.0
-20.0 18.8888888889 0.0
-20.0 17.7777777778 0.0
-20.0 16.6666666667 0.0
-20.0 15.5555555556 0.0
-20.0 14.4444444444 0.0
-20.0 13.3333333333 0.0
-20.0 12.2222222222 0.0
-20.0 11.1111111111 0.0
-18.8650027336 10.0 0.0
-17.813310278 10.0 0.0
-16.8388083846 10.0 0.0
-15.9358314798 10.0 0.0
-15.0991299341 10.0 0.0
-14.3238392211 10.0 0.0
-13.6054522927 10.0 0.0
-12.9397923214 10.0 0.0
-12.3229895186 10.0 0.0
-11.7514578516 10.0 0.0
-11.2218745847 10.0 0.0
-10.7311608998 10.0 0.0
-10.2764639398 10.0 0.0
-9.85514009809 10.0 0.0
-9.46473993718 10.0 0.0
-9.10299376652 10.0 0.0
-8.76779846999 10.0 0.0
-8.45720535465 10.0 0.0
-8.16940869126 10.0 0.0
-7.90273530971 10.0 0.0
-7.65563480469 10.0 0.0
-7.42667061625 10.0 0.0
-7.21451157725 10.0 0.0
-7.01792427638 10.0 0.0
-6.83576580446 10.0 0.0
-6.66697710929 10.0 0.0
-6.51057691162 10.0 0.0
-6.36565595492 10.0 0.0
-6.23137167006 10.0 0.0
-6.10694339793 10.0 0.0
-5.99164772416 10.0 0.0
-5.88481433485 10.0 0.0
-5.78582216167 10.0 0.0
-5.69409565458 10.0 0.0
-5.60910153833 10.0 0.0
-5.53034570218 10.0 0.0
-5.45737027246 10.0 0.0
-5.38975097877 10.0 0.0
-5.32709470476 10.0 0.0
-5.26903718838 10.0 0.0
-5.21524088515 10.0 0.0
-5.16539304215 10.0 0.0
-5.11920385255 10.0 0.0
-5.07640479059 10.0 0.0
-5.03674702257 10.0 0.0
-4.96413737767 9.99987138558 0.0
-4.92827660031 9.99948554893 0.0
-4.89241951282 9.9988425099 0.0
-4.85656795989 9.99794230157 0.0
-4.82072378593 9.99678497027 0.0
-4.78488883498 9.99537057551 0.0
-4.74906495058 9.99369919008 0.0
-4.71325397573 9.99177089995 0.0
-4.67745775275 9.98958580433 0.0
-4.64167812321 9.98714401563 0.0
-4.60591692781 9.98444565947 0.0
-4.57017600631 9.98149087467 0.0
-4.53445719745 9.97827981325 0.0
-4.49876233879 9.97481264039 0.0
-4.46309326668 9.97108953447 0.0
-4.42745181616 9.96711068703 0.0
-4.39183982081 9.96287630276 0.0
-4.35625911274 9.9583865995 0.0
-4.32071152241 9.95364180823 0.0
-4.2851988786 9.94864217305 0.0
-4.24972300828 9.94338795116 0.0
-4.21428573654 9.93787941288 0.0
-4.17888888647 9.9321168416 0.0
-4.1435342791 9.92610053378 0.0
-4.10822373326 9.91983079893 0.0
-4.07295906554 9.9133079596 0.0
-4.03774209015 9.90653235136 0.0
-4.00257461886 9.89950432279 0.0
-3.96745846088 9.89222423546 0.0
-3.9323954228 9.88469246389 0.0
-3.89738730846 9.87690939556 0.0
-3.86243591888 9.86887543087 0.0
-3.82754305215 9.86059098315 0.0
-3.79271050337 9.85205647858 0.0
-3.75794006453 9.84327235624 0.0
-3.72323352442 9.83423906803 0.0
-3.68859266854 9.82495707867 0.0
-3.65401927902 9.81542686568 0.0
-3.61951513452 9.80564891936 0.0
-3.58508201011 9.79562374274 0.0
-3.55072167726 9.78535185156 0.0
-3.51643590364 9.77483377428 0.0
-3.48222645311 9.764070052 0.0
-3.44809508561 9.75306123848 0.0
-3.41404355706 9.74180790006 0.0
-3.38007361925 9.73031061569 0.0
-3.3461870198 9.71856997686 0.0
-3.31238550203 9.70658658757 0.0
-3.27867080489 9.69436106431 0.0
-3.24504466285 9.68189403603 0.0
-3.21150880584 9.66918614412 0.0
-3.17806495913 9.65623804233 0.0
-3.14471484327 9.6430503968 0.0
-3.11146017398 9.62962388597 0.0
-3.07830266208 9.61595920058 0.0
-3.04524401337 9.60205704362 0.0
-3.01228592859 9.5879181303 0.0
-2.97943010329 9.573543188 0.0
-2.94667822776 9.55893295626 0.0
-2.91403198694 9.5440881867 0.0
-2.88149306036 9.52900964303 0.0
-2.84906312199 9.51369810098 0.0
-2.81674384022 9.49815434826 0.0
-2.78453687775 9.48237918454 0.0
-2.75244389148 9.46637342136 0.0
-2.72046653246 9.45013788218 0.0
-2.6886064458 9.43367340222 0.0
-2.65686527055 9.41698082853 0.0
-2.62524463967 9.40006101987 0.0
-2.59374617991 9.38291484668 0.0
-2.56237151172 9.36554319107 0.0
-2.53112224921 9.34794694674 0.0
-2.50000000001 9.33012701893 0.0
-2.46900636523 9.3120843244 0.0
-2.43814293936 9.29381979138 0.0
-2.40741131021 9.2753343595 0.0
-2.37681305877 9.25662897976 0.0
-2.3463497592 9.23770461447 0.0
-2.3160229787 9.2185622372 0.0
-2.28583427747 9.19920283276 0.0
-2.25578520858 9.1796273971 0.0
-2.22587731793 9.15983693729 0.0
-2.19611214416 9.13983247147 0.0
-2.16649121855 9.11961502879 0.0
-2.13701606498 9.09918564935 0.0
-2.10768819982 9.07854538415 0.0
-2.07850913186 9.05769529504 0.0
-2.04948036225 9.03663645468 0.0
-2.02060338439 9.01536994646 0.0
-1.99187968388 8.99389686444 0.0
-1.96331073843 8.97221831332 0.0
-1.9348980178 8.95033540838 0.0
-1.90664298369 8.9282492754 0.0
-1.87854708972 8.90596105061 0.0
-1.85061178129 8.88347188065 0.0
-1.82283849556 8.8607829225 0.0
-1.79522866134 8.8378953434 0.0
-1.76778369905 8.81481032082 0.0
-1.74050502061 8.7915290424 0.0
-1.7133940294 8.76805270584 0.0
-1.68645212016 8.74438251892 0.0
-1.65968067894 8.72051969936 0.0
-1.63308108301 8.69646547481 0.0
-1.60665470082 8.67222108274 0.0
-1.58040289188 8.64778777044 0.0
-1.55432700675 8.62316679489 0.0
-1.52842838691 8.59835942274 0.0
-1.50270836475 8.57336693022 0.0
-1.47716826344 8.54819060309 0.0
-1.45180939692 8.52283173657 0.0
-1.42663306979 8.49729163526 0.0
-1.40164057727 8.4715716131 0.0
-1.37683320512 8.44567299326 0.0
-1.35221222957 8.41959710813 0.0
-1.32777891727 8.39334529919 0.0
-1.30353452521 8.366918917 0.0
-1.27948030065 8.34031932107 0.0
-1.25561748109 8.31354787985 0.0
-1.23194729417 8.28660597061 0.0
-1.20847095761 8.2594949794 0.0
-1.18518967919 8.23221630096 0.0
-1.16210465661 8.20477133867 0.0
-1.13921707751 8.17716150446 0.0
-1.11652811936 8.14938821872 0.0
-1.0940389494 8.12145291029 0.0
-1.07175072461 8.09335701632 0.0
-1.04966459163 8.06510198221 0.0
-1.02778168669 8.03668926158 0.0
-1.00610313557 8.00812031613 0.0
-0.984630053552 7.97939661562 0.0
-0.963363545327 7.95051963776 0.0
-0.942304704967 7.92149086815 0.0
-0.921454615862 7.89231180019 0.0
-0.90081435066 7.86298393503 0.0
-0.880384971216 7.83350878146 0.0
-0.860167528534 7.80388785585 0.0
-0.840163062717 7.77412268208 0.0
-0.82037260291 7.74421479143 0.0
-0.800797167248 7.71416572254 0.0
-0.781437762805 7.68397702131 0.0
-0.762295385539 7.65365024081 0.0
-0.743371020246 7.62318694124 0.0
-0.724665640503 7.5925886898 0.0
-0.706180208624 7.56185706065 0.0
-0.687915675605 7.53099363478 0.0
-0.66987298108 7.5 0.0
-0.652053053269 7.4688777508 0.0
-0.634456808932 7.43762848829 0.0
-0.617085153321 7.4062538201 0.0
-0.599938980135 7.37475536034 0.0
-0.58301917147 7.34313472946 0.0
-0.566326597781 7.31139355421 0.0
-0.549862117829 7.27953346755 0.0
-0.533626578641 7.24755610853 0.0
-0.517620815469 7.21546312226 0.0
-0.50184565174 7.18325615978 0.0
-0.486301899021 7.15093687802 0.0
-0.470990356971 7.11850693965 0.0
-0.455911813304 7.08596801306 0.0
-0.441067043748 7.05332177225 0.0
-0.426456812003 7.02056989672 0.0
-0.412081869704 6.98771407142 0.0
-0.397942956381 6.95475598663 0.0
-0.384040799421 6.92169733793 0.0
-0.370376114032 6.88853982602 0.0
-0.356949603203 6.85528515674 0.0
-0.343761957671 6.82193504088 0.0
-0.330813855886 6.78849119417 0.0
-0.318105963973 6.75495533716 0.0
-0.305638935697 6.72132919512 0.0
-0.293413412437 6.68761449797 0.0
-0.281430023142 6.6538129802 0.0
-0.269689384307 6.61992638075 0.0
-0.25819209994 6.58595644295 0.0
-0.246938761526 6.55190491439 0.0
-0.235929948002 6.51777354689 0.0
-0.225166225724 6.48356409637 0.0
-0.214648148442 6.44927832275 0.0
-0.204376257265 6.41491798989 0.0
-0.194351080639 6.38048486549 0.0
-0.184573134316 6.34598072098 0.0
-0.175042921332 6.31140733146 0.0
-0.165760931974 6.27676647558 0.0
-0.156727643762 6.24205993547 0.0
-0.14794352142 6.20728949663 0.0
-0.139409016855 6.17245694785 0.0
-0.13112456913 6.13756408113 0.0
-0.123090604445 6.10261269154 0.0
-0.115307536114 6.0676045772 0.0
-0.107775764543 6.03254153912 0.0
-0.100495677209 5.99742538114 0.0
-0.093467648642 5.96225790985 0.0
-0.0866920404046 5.92704093447 0.0
-0.080169201073 5.89177626674 0.0
-0.0738994662197 5.85646572091 0.0
-0.067883158396 5.82111111353 0.0
-0.0621205871156 5.78571426346 0.0
-0.0566120488383 5.75027699172 0.0
-0.0513578269551 5.7148011214 0.0
-0.0463581917735 5.67928847759 0.0
-0.0416134005035 5.64374088726 0.0
-0.0371236972447 5.60816017919 0.0
-0.0328893129732 5.57254818384 0.0
-0.0289104655302 5.53690673332 0.0
-0.0251873596105 5.50123766122 0.0
-0.0217201867523 5.46554280255 0.0
-0.0185091253269 5.42982399369 0.0
-0.0155543405298 5.39408307219 0.0
-0.0128559843721 5.35832187679 0.0
-0.010414195673 5.32254224725 0.0
-0.00822910005203 5.28674602427 0.0
-0.00630080992318 5.25093504942 0.0
-0.00462942448881 5.21511116502 0.0
-0.00321502973463 5.17927621407 0.0
-0.00205769842527 5.14343204011 0.0
-0.00115749010052 5.10758048718 0.0
-0.000514451072299 5.07172339969 0.0
-0.000128614422241 5.03586262233 0.0
0.0 4.96210871268 0.0
0.0 4.91493291879 0.0
0.0 4.85619761383 0.0
0.0 4.78307039291 0.0
0.0 4.69202478373 0.0
0.0 4.57867022864 0.0
0.0 4.43754040407 0.0
0.0 4.26182947167 0.0
0.0 4.043064028 0.0
0.0 3.77069445193 0.0
0.0 3.43158604656 0.0
0.0 3.0093857748 0.0
[...]
POINT_DATA 3379
VECTORS Displacement float
0.0 0.0 0
0.0 0.0 0
-0.693743129827 0.153166976666 0
-0.6 -0.533434372161 0
-0.6 -0.511696613488 0
-0.405842076527 -0.322926190763 0
-0.138791305238 -0.11775941977 0
0.0 0.0 0
0.0 0.0 0
0.0 0.0 0
0.0 0.0 0
0.0 0.0 0
0.0 0.0 0
0.0 0.0 0
0.0 0.0 0
-0.0354401697609 0.0361193636687 0
-0.0634505647588 0.0631572093562 0
-0.0959270751787 0.0867654664837 0
-0.131323225563 0.106150108018 0
-0.170863306198 0.12267448342 0
-0.213790308232 0.135325420758 0
-0.257756008959 0.144599382383 0
-0.303630515042 0.151262057609 0
-0.349040857643 0.155326202376 0
-0.394531977179 0.157260018044 0
-0.439232505122 0.157877154455 0
-0.483157789101 0.157650274311 0
-0.526184590347 0.156845052492 0
-0.568609404717 0.155789503517 0
-0.610432119506 0.154839220105 0
-0.652116650896 0.153928094932 0
-0.692961365995 0.110641689915 0
-0.692026945524 0.0681558710061 0
-0.691042016693 0.025806421716 0
-0.689943971587 -0.0161831445682 0
-0.688752724621 -0.0578459908777 0
-0.687254763405 -0.0991433550733 0
-0.685568415055 -0.139851858523 0
-0.683404215391 -0.179925567198 0
-0.680661039986 -0.21875531265 0
-0.677170111597 -0.256271267551 0
-0.672912050664 -0.292236880698 0
-0.668041278848 -0.32576189018 0
-0.662947329727 -0.356968667301 0
-0.657657042213 -0.385603386675 0
-0.652178246555 -0.411609543748 0
-0.646570898645 -0.435011583298 0
-0.641159633617 -0.455788014341 0
-0.635399906045 -0.473922463744 0
-0.630398813583 -0.489983355749 0
-0.624997849494 -0.502989747317 0
-0.620035164251 -0.513872687034 0
-0.61488478684 -0.522445583817 0
-0.609899784619 -0.527802845973 0
-0.604774517693 -0.531763408085 0
-0.6 -0.534615923503 0
-0.6 -0.535305445635 0
-0.6 -0.53489558184 0
-0.6 -0.533709412505 0
-0.6 -0.531268542869 0
-0.6 -0.527764296988 0
-0.6 -0.523474497636 0
-0.6 -0.517855557014 0
-0.585770754204 -0.510423649432 0
-0.57220894823 -0.507630300283 0
-0.559980713179 -0.503248294385 0
-0.548439995024 -0.497687553991 0
-0.537629241596 -0.491292788846 0
-0.527816965093 -0.48436006113 0
-0.518743632976 -0.476988320542 0
-0.510282071666 -0.469337411795 0
-0.502326656291 -0.461659964919 0
-0.495048556019 -0.453916503899 0
-0.488309602134 -0.446301405988 0
-0.482023872152 -0.438789251348 0
-0.476248678191 -0.431465496515 0
-0.470825785098 -0.424416148585 0
-0.465817091298 -0.417593937718 0
-0.461183210658 -0.411052853446 0
-0.45687977237 -0.404795184391 0
-0.452881683024 -0.398836985139 0
-0.449184173123 -0.393176028567 0
-0.445742317807 -0.387820055346 0
-0.442512110625 -0.382782535668 0
-0.439527492683 -0.378012199771 0
-0.436740430623 -0.373525690827 0
-0.434163202149 -0.369299666062 0
-0.431748926485 -0.365337344029 0
-0.429492482783 -0.36162238192 0
-0.427398234562 -0.358141021165 0
-0.425447413876 -0.354881305388 0
-0.423624517213 -0.351839769538 0
-0.421926708282 -0.34899583992 0
-0.420339534779 -0.346350828432 0
-0.418859714629 -0.343879653014 0
-0.417474469646 -0.341579813321 0
-0.416183753594 -0.339431733054 0
-0.414974766827 -0.337438283606 0
-0.413845928223 -0.335584307407 0
-0.412789685058 -0.333858652144 0
-0.411802578465 -0.332254782283 0
-0.410877988797 -0.33076235703 0
-0.410012216649 -0.329380181374 0
-0.409202242421 -0.328093413053 0
-0.408442722624 -0.326901741324 0
-0.40773088384 -0.32579212111 0
-0.407062850826 -0.324764090719 0
-0.406435043368 -0.323808766571 0
-0.405251967562 -0.322056887643 0
-0.404644105858 -0.321190614997 0
-0.404023984589 -0.320313720495 0
-0.403386488041 -0.319435108523 0
-0.402741366678 -0.31854936707 0
-0.402083158335 -0.317662673211 0
-0.40141662289 -0.316771944222 0
-0.400734060203 -0.315876949426 0
-0.400047203013 -0.314978150858 0
-0.399349004946 -0.314070606863 0
-0.398635175839 -0.313166512016 0
-0.397916347216 -0.312251183783 0
-0.397183042765 -0.311335849871 0
-0.396444462385 -0.310418476226 0
-0.395699001338 -0.309495761386 0
-0.394940822273 -0.308568615308 0
-0.394170562646 -0.307640570137 0
-0.393395467668 -0.306706029034 0
-0.392609014531 -0.305768858236 0
-0.391817216528 -0.304833139149 0
-0.391017009393 -0.303887774532 0
-0.390202540324 -0.302942566668 0
-0.389384944854 -0.301989605247 0
-0.388556029666 -0.301036390827 0
-0.38772156523 -0.300078363214 0
-0.386876898114 -0.299118731198 0
-0.386026781422 -0.29815686481 0
-0.385166432939 -0.297192192053 0
-0.384300651577 -0.296227664748 0
-0.383422696971 -0.29525656474 0
-0.382539256691 -0.294284189699 0
-0.381649511081 -0.293308000215 0
-0.380748538182 -0.292329580792 0
-0.379845264548 -0.291351049399 0
-0.37893012312 -0.290368408432 0
-0.378005592163 -0.289384393716 0
-0.377077387803 -0.288399055904 0
-0.376137318696 -0.28740983478 0
-0.375193274287 -0.286415607757 0
-0.374244234705 -0.285421052007 0
-0.373286590699 -0.284427310487 0
-0.372317696764 -0.283431324373 0
-0.371344604183 -0.282429553309 0
-0.370360987721 -0.281426879135 0
-0.369374778763 -0.280426471036 0
-0.368382506559 -0.279422227114 0
-0.367380569441 -0.278412824767 0
-0.366369326594 -0.277406693927 0
-0.365353781389 -0.276397769188 0
-0.364327593769 -0.275385646258 0
-0.363299382075 -0.274375969245 0
-0.362265307467 -0.273362153358 0
-0.361220914251 -0.272344894689 0
-0.360168973977 -0.271329674163 0
-0.359114794379 -0.27031473853 0
-0.358049546299 -0.269296294355 0
-0.356975268708 -0.26827758458 0
-0.355897936181 -0.267258371028 0
-0.354817022936 -0.266237279667 0
-0.353724139298 -0.265216028804 0
-0.352630481712 -0.264195417604 0
-0.351527981416 -0.26316808901 0
-0.35041582653 -0.262147759956 0
-0.349300213858 -0.261120932742 0
-0.348173896379 -0.260094680381 0
-0.347045620735 -0.259070598326 0
-0.345912630666 -0.258043354933 0
-0.344771421045 -0.257015530077 0
-0.343620816028 -0.255989417308 0
-0.34246887241 -0.254963369417 0
-0.341305707737 -0.253935404661 0
-0.34014238628 -0.252905605998 0
-0.338968660357 -0.251879870796 0
-0.337791231962 -0.250849714732 0
-0.336603487378 -0.249819904051 0
-0.335414299153 -0.248792560897 0
-0.334220879434 -0.247762953736 0
-0.333019827678 -0.246733636549 0
-0.331810038366 -0.245706490086 0
-0.330599969922 -0.244682072733 0
-0.32937803089 -0.243654577982 0
-0.328157016775 -0.242626854813 0
-0.326924278648 -0.241601330189 0
-0.325688885289 -0.240572127971 0
-0.324445928709 -0.239544974446 0
-0.32320006352 -0.238519314683 0
-0.321945255993 -0.237493340444 0
-0.32068957264 -0.236469850882 0
-0.319424320326 -0.235444149618 0
-0.318158156189 -0.234420853572 0
-0.316882922283 -0.233397688364 0
-0.315605068535 -0.232375816937 0
-0.314319207429 -0.231353198933 0
-0.313032067309 -0.230333593805 0
-0.311736226483 -0.229312392588 0
-0.310438914453 -0.228293259997 0
-0.309133596177 -0.227274303128 0
-0.307826049632 -0.226258119519 0
-0.306510740189 -0.225240981578 0
-0.30519478674 -0.224227095048 0
-0.303869564872 -0.223211337815 0
-0.302545105923 -0.222199091569 0
-0.301211160313 -0.221186948594 0
-0.299876143268 -0.220176195113 0
-0.298533562153 -0.219165936783 0
-0.297187946705 -0.218159093773 0
-0.295838955361 -0.217151798713 0
-0.294485114114 -0.216147272183 0
-0.293127651885 -0.215142756837 0
-0.291763367633 -0.21413639334 0
-0.290397916006 -0.213135975165 0
-0.289025102035 -0.212137009598 0
-0.287652270276 -0.211137815812 0
-0.286271886739 -0.210138708664 0
-0.284890656458 -0.209143806386 0
-0.283505552164 -0.208148535152 0
-0.282117759149 -0.207155080715 0
-0.280723627961 -0.206164096198 0
-0.279327997144 -0.205176047805 0
-0.277924665086 -0.204186260289 0
-0.276522598427 -0.203199980265 0
-0.275113487742 -0.202213171028 0
-0.273705525069 -0.201230680666 0
-0.272290110377 -0.200248241091 0
-0.270874098573 -0.199268290915 0
-0.269457080935 -0.198290810391 0
-0.268033461633 -0.197313333739 0
-0.266609934195 -0.196340165298 0
-0.265180035944 -0.195365553172 0
-0.263753121587 -0.194396071515 0
-0.262319402446 -0.193426367973 0
-0.260886619579 -0.192461551301 0
-0.259445563111 -0.191494813498 0
-0.258006060024 -0.19053084351 0
-0.256562893753 -0.18956725226 0
-0.255121150371 -0.188609540224 0
-0.253672458373 -0.187651085511 0
-0.252225865367 -0.186696472457 0
-0.250775233085 -0.185743162753 0
-0.249322430106 -0.184791617367 0
-0.247868737391 -0.18384200547 0
-0.246412557505 -0.182893818294 0
-0.244957186741 -0.181947006201 0
-0.24349652831 -0.181000872002 0
-0.242039233806 -0.180059558113 0
-0.240576571414 -0.179117322143 0
-0.239118000413 -0.17818072944 0
-0.237651900149 -0.177243220711 0
-0.23618826981 -0.176310281952 0
-0.23472237122 -0.175377003787 0
-0.233256974636 -0.174448100362 0
-0.231793864579 -0.173522998224 0
-0.230324576916 -0.172595342577 0
-0.228860177691 -0.171672400004 0
-0.227391794738 -0.17075135287 0
-0.225926187361 -0.169832542395 0
-0.224456984434 -0.168915003553 0
-0.222990110007 -0.167999295942 0
-0.221523105676 -0.16708633612 0
-0.220058865135 -0.166176328563 0
-0.218592192588 -0.16526583291 0
-0.217127690538 -0.164358567037 0
-0.21566759889 -0.163456196416 0
-0.214201862827 -0.16255512531 0
-0.212740569023 -0.16165695163 0
-0.211280220141 -0.160757925003 0
-0.209817810176 -0.159863904844 0
-0.208356962637 -0.158972513776 0
-0.206899039136 -0.158083267761 0
-0.205445975268 -0.157194454568 0
-0.2039905597 -0.156308405245 0
-0.202536938862 -0.155427784778 0
-0.201084050162 -0.154546267656 0
-0.19963354731 -0.153665933553 0
-0.198190927465 -0.152792181309 0
-0.196746707855 -0.151917338682 0
-0.195308153545 -0.151048505512 0
-0.193866676491 -0.150179702127 0
-0.192430818033 -0.149316139516 0
-0.190993579869 -0.148450284867 0
-0.189564330065 -0.147591282967 0
-0.188140145854 -0.146737119338 0
-0.186711654111 -0.145880500214 0
-0.185293314488 -0.145028745203 0
-0.183874760515 -0.144178362856 0
-0.182464222074 -0.143333495187 0
-0.181055092508 -0.1424886575 0
-0.17965422019 -0.141651249345 0
-0.178251989939 -0.140814065061 0
-0.176856005687 -0.13998389597 0
-0.175461054089 -0.139152184272 0
-0.17407249602 -0.138328891123 0
-0.172690964358 -0.137509851027 0
-0.171308278089 -0.136686644724 0
-0.169932635257 -0.13586898188 0
-0.168559315783 -0.135058422354 0
-0.167197507702 -0.134250949473 0
-0.165836286633 -0.13344232276 0
-0.164485313769 -0.132641414795 0
-0.163137381945 -0.131842278166 0
-0.161796514564 -0.131050928458 0
-0.16046011026 -0.130259629879 0
-0.15913092363 -0.129477745658 0
-0.157813459664 -0.128701138919 0
-0.156493593937 -0.127923883397 0
-0.155184230667 -0.127156223586 0
-0.153877786758 -0.126388234669 0
-0.152579327346 -0.125628601461 0
-0.151289628971 -0.124878034189 0
-0.150006528425 -0.124132793706 0
-0.148734159883 -0.123393173572 0
-0.147462987918 -0.122657068191 0
-0.146202973069 -0.121929044766 0
-0.14494810354 -0.121209904086 0
-0.143699612328 -0.120498334957 0
-0.142464120895 -0.119797681404 0
-0.141233955345 -0.119104248494 0
-0.140009409878 -0.118423598908 0
-0.137511980148 -0.117063602417 0
-0.13592777714 -0.116201747703 0
-0.133961080518 -0.115136811769 0
-0.131527093878 -0.113813791361 0
-0.128527011355 -0.112160726326 0
-0.12483395365 -0.110087376893 0
-0.120308524758 -0.107488099089 0
-0.114778776476 -0.104225443886 0
-0.108036384971 -0.100131095188 0
-0.0998185659628 -0.0948479100802 0
-0.0899879540259 -0.0882014569942 0
-0.0783150055585 -0.079455892363 0
-0.0648268471091 -0.0683319235968 0
-0.0486167026088 -0.0532787668594 0
-0.0298316948667 -0.0322333448897 0
-0.453118700202 -0.0662795210118 0
-0.252598663165 -0.0130920107687 0
-0.520323664028 -0.244541005305 0
-0.5411890329 -0.380356693746 0
-0.121394794263 -0.0268290153319 0
-0.340404440817 -0.104992853887 0
-0.421795748985 -0.201610816819 0
-0.461663471473 -0.288293121988 0
-0.235113612798 -0.0760371195392 0
-0.477827095776 -0.353119915276 0
-0.158481110934 -0.0693835480411 0
-0.2883143805 -0.13014592545 0
-0.35178217766 -0.1810787311 0
-0.386215681507 -0.232280330144 0
-0.414428016574 -0.275733130245 0
-0.44158600024 -0.318536985836 0
-0.231715027168 -0.117671689639 0
-0.185550208359 -0.103620788287 0
-0.261380929813 -0.146587127276 0
-0.304422323246 -0.172711713299 0
-0.331982555563 -0.20224910137 0
-0.35543922307 -0.228601708528 0
-0.3783366833 -0.253944377828 0
-0.14867848517 -0.0929497571995 0
-0.413394356488 -0.300711290118 0
-0.421393020591 -0.319875560559 0
-0.44377780783 -0.347755904445 0
-0.389319162118 -0.275060477915 0
-0.231530749462 -0.141639869789 0
-0.204249461709 -0.128438049427 0
-0.560634040479 -0.473222359078 0
-0.276215035588 -0.171113376033 0
-0.502535308602 -0.410940499469 0
-0.293516032657 -0.189413910776 0
-0.309292861542 -0.202811226942 0
-0.394096605452 -0.289588668688 0
-0.0926252649115 -0.0528264480088 0
-0.323975048654 -0.21707693063 0
-0.184319025336 -0.122954121751 0
-0.163552428936 -0.112177410695 0
-0.425995697131 -0.334524934947 0
-0.401914636631 -0.30205305358 0
-0.245609654529 -0.158658211452 0
-0.336052351735 -0.229350143235 0
-0.350746674808 -0.24196686177 0
-0.360603550765 -0.253928980443 0
-0.371428944004 -0.265828952304 0
-0.466599953062 -0.380643769283 0
-0.40722799687 -0.312045922297 0
-0.413573459469 -0.321597102106 0
-0.147621071442 -0.107607754505 0
-0.122049539263 -0.0869161264576 0
-0.257607944238 -0.170673332275 0
-0.21678671595 -0.145118708319 0
-0.13407258402 -0.103058936947 0
-0.22745618833 -0.154356126646 0
-0.377334308815 -0.275760876175 0
-0.276991434883 -0.185784482156 0
-0.381886309158 -0.283147621876 0
-0.416050819662 -0.328794880828 0
-0.203827555944 -0.142103427309 0
-0.192405921918 -0.136739043475 0
-0.295308938556 -0.200914688092 0
-0.436747954347 -0.247745909354 0
-0.391883483246 -0.295225557388 0
-0.574352642309 -0.513554736635 0
-0.264204436825 -0.180664528423 0
-0.429891916551 -0.345916059923 0
-0.446088049477 -0.36507597366 0
-0.174135749257 -0.125803061096 0
-0.310286564031 -0.213516097691 0
-0.283152923277 -0.195363646933 0
-0.51518954625 -0.449453454821 0
-0.338546464907 -0.238785914545 0
-0.51843447182 -0.329656565336 0
-0.156455535814 -0.117173800107 0
-0.183007899454 -0.133175962145 0
-0.349585901469 -0.250416741852 0
-0.32291981467 -0.227297727497 0
-0.360629240171 -0.261654920551 0
-0.399422817483 -0.306352364141 0
-0.246645499194 -0.170670581208 0
-0.236969577273 -0.164419616354 0
-0.40593063269 -0.316030181583 0
-0.165032348496 -0.124208394277 0
-0.35858522666 -0.0324604710977 0
-0.489769578301 -0.159498644721 0
-0.3001110053 -0.208459561143 0
-0.438215945612 -0.296824203422 0
-0.314300923651 -0.220989176997 0
-0.393390859555 -0.300126797925 0
-0.385441689295 -0.290022465076 0
-0.329967484457 -0.234311135819 0
-0.353695610307 -0.25651629753 0
-0.364877159759 -0.267592229309 0
-0.341829462602 -0.245568537733 0
-0.408080030408 -0.320384294201 0
-0.401473156488 -0.311066688744 0
-0.386257240742 -0.150078181185 0
-0.47384509647 -0.403351184113 0
-0.142769597169 -0.112137749338 0
-0.219594815246 -0.15566832581 0
-0.211739061257 -0.151391682038 0
-0.149466176061 0.0348812795253 0
-0.325316370418 -0.150732584082 0
-0.286653974308 -0.152836403462 0
-0.478860676489 -0.323151790652 0
-0.288253533673 -0.0895407882499 0
-0.576889643982 -0.0997900767945 0
-0.532729825279 0.0248657871497 0
-0.440236489959 -0.33328199769 0
-0.418555958991 -0.334667039661 0
-0.544133909611 -0.486315915418 0
-0.361179565281 -0.206349290723 0
-0.149340286572 -0.116919599612 0
-0.375231771678 -0.279617636218 0
-0.590783891792 -0.3002946195 0
-0.207760563137 -0.0878761252886 0
-0.136655862101 -0.110637185175 0
-0.267850954476 -0.188142043079 0
-0.256046606945 -0.17971848886 0
-0.229754957321 -0.163473983336 0
-0.369107608922 -0.272949433621 0
-0.186969755518 -0.0547049198256 0
-0.55135648268 -0.433700723816 0
-0.341519142682 -0.217907706273 0
-0.286677187112 -0.201710731985 0
-0.275331713927 -0.193084869684 0
-0.257778057475 -0.103471029916 0
-0.402485213462 -0.254386096843 0
-0.323180916205 0.0519519004079 0
-0.409317287787 -0.32366567524 0
-0.292042494996 -0.206196919672 0
-0.408002850346 -0.101579516392 0
-0.567848176701 -0.183357646469 0
-0.197569227717 -0.144824336157 0
-0.0564805277809 0.00711778457375 0
-0.47148279144 -0.223768694748 0
-0.412351519008 -0.327899589867 0
-0.434806709923 0.0145232861834 0
-0.366258797427 -0.2411303192 0
-0.127303980857 -0.0700834754813 0
-0.258771274857 -0.124202303501 0
-0.406083288939 -0.285634956225 0
-0.309987084508 -0.187713230691 0
-0.592995588406 -0.504907058448 0
-0.494196824065 -0.383948316136 0
-0.249178190144 -0.176519966631 0
-0.240124221798 -0.171064600204 0
-0.260752557177 -0.0509102074193 0
-0.31837812765 -0.0638821524992 0
-0.245285025683 -0.131928163546 0
-0.207947406815 -0.110559664636 0
-0.596656451083 -0.40891884642 0
-0.413383853095 -0.308575400753 0
-0.3025546104 -0.214432770886 0
-0.20514408376 -0.14924735414 0
-0.170847966187 -0.12965064806 0
-0.177029877336 -0.133248754851 0
-0.180223311298 -0.0136312713077 0
-0.379639828421 -0.285764303955 0
-0.389222400519 -0.19378049824 0
-0.0399094815921 -0.027414583348 0
-0.456876149447 -0.385127046478 0
-0.0566920969483 -0.0142078264543 0
-0.591677110635 -0.459451311638 0
-0.128091017917 -0.104787315498 0
-0.186790554335 -0.139240873184 0
-0.386664329467 -0.294054544332 0
-0.223209258147 -0.161046717153 0
-0.21907463678 -0.132590481417 0
-0.316033706235 -0.225499811245 0
-0.308322170422 -0.219552450421 0
-0.393736883702 -0.303022303613 0
-0.16092861456 -0.124743535253 0
-0.331342515093 -0.238941599979 0
-0.323744944779 -0.232348896831 0
-0.596027792266 -0.527696564243 0
-0.382677489932 -0.264253719049 0
-0.359013600731 -0.264737543464 0
-0.347867541437 -0.253914848884 0
-0.354719528684 -0.260534892123 0
-0.343377951696 -0.249775743621 0
-0.335947105345 -0.243053670491 0
-0.404373807547 -0.317157633194 0
-0.316154256136 -0.118414367765 0
-0.0990830283137 -0.0785237542632 0
-0.331256847448 -0.182456209376 0
-0.401782619102 -0.313614950432 0
-0.39745200297 -0.307861120964 0
-0.503843483105 -0.285340179382 0
-0.467051602793 -0.366588100103 0
-0.489534179822 -0.427675748644 0
-0.265225894263 -0.160364063318 0
-0.246145222096 -0.145433691496 0
-0.37033156971 -0.276447888174 0
-0.439542084783 -0.16272279882 0
-0.431189882959 -0.352981175025 0
-0.259216709471 -0.184556169683 0
-0.461776726162 -0.337344521691 0
-0.278287501434 -0.197641088511 0
-0.114864151424 -0.0938161531009 0
-0.155451975714 -0.121949277464 0
-0.437193780985 -0.275056699173 0
-0.243927791959 -0.175220776293 0
-0.345127458937 -0.233982771258 0
-0.19272380127 -0.143679355783 0
-0.473038310794 -0.259457898373 0
-0.39978104454 -0.26870623067 0
-0.376094513302 -0.282972221044 0
-0.52687988822 -0.404817802397 0
-0.388565568895 -0.297052180082 0
-0.166276132812 -0.0971676407264 0
-0.146126713008 -0.117618991449 0
-0.318958897526 -0.229595986426 0
-0.427646768397 -0.313886559137 0
-0.166511457043 -0.12900077987 0
-0.56502000747 -0.346631843122 0
-0.303174773066 -0.194435406502 0
-0.230306534105 0.0446114280653 0
-0.182458084824 -0.138091971067 0
-0.42084827816 -0.340059708649 0
-0.389966654287 -0.281954165955 0
-0.578244574503 -0.519382312918 0
-0.4142058275 -0.331297769232 0
-0.233434570285 -0.168325007379 0
-0.4211295583 -0.32775252767 0
-0.352417471606 -0.137771171655 0
-0.520838743336 -0.467485138481 0
-0.137390922664 -0.0951620613101 0
-0.512129492241 -0.367851028602 0
-0.215660144198 -0.157126310417 0
-0.285086965592 -0.17932209368 0
-0.142271909737 -0.116253762363 0
-0.367902223755 -0.259761712535 0
-0.174384560104 -0.115115097001 0
-0.236849009802 -0.151000511478 0
-0.318328080177 -0.20894824749 0
-0.363934326691 -0.270214509361 0
-0.422469590559 -0.293497639726 0
-0.41329482699 -0.238962336895 0
-0.554875746901 -0.502846299546 0
-0.404822568117 -0.296493327281 0
-0.528643729559 -0.437751408964 0
-0.411764992281 -0.317164610987 0
-0.372450691636 -0.229503378643 0
-0.290737711553 -0.168041892178 0
-0.194275047202 -0.117099602847 0
-0.57088258423 -0.498189348509 0
-0.380456837972 -0.271083069438 0
-0.459369543521 -0.312397350463 0
-0.443446299412 -0.370946967494 0
-0.356447109615 -0.247575057979 0
-0.231598039006 -0.129625232032 0
-0.272627821036 -0.137174799428 0
-0.383633931248 -0.243309224058 0
-0.232365254648 -0.0977640355429 0
-0.330821751686 -0.222711567428 0
-0.194179639947 -0.127652075681 0