# vtk DataFile Version 2.0
Generated with Solid Solver
ASCII
DATASET UNSTRUCTURED_GRID
POINTS 3379 float 
0.0 0.0 0.0
10.0 0.0 0.0
10.0 20.0 0.0
-20.0 20.0 0.0
-20.0 10.0 0.0
-5.0 10.0 0.0
0.0 5.0 0.0
1.11111111111 0.0 0.0
2.22222222222 0.0 0.0
3.33333333333 0.0 0.0
4.44444444444 0.0 0.0
5.55555555555 0.0 0.0
6.66666666666 0.0 0.0
7.77777777777 0.0 0.0
8.88888888889 0.0 0.0
10.0 1.17647058823 0.0
10.0 2.35294117647 0.0
10.0 3.5294117647 0.0
10.0 4.70588235293 0.0
10.0 5.88235294116 0.0
10.0 7.0588235294 0.0
10.0 8.23529411763 0.0
10.0 9.41176470587 0.0
10.0 10.5882352941 0.0
10.0 11.7647058823 0.0
10.0 12.9411764706 0.0
10.0 14.1176470588 0.0
10.0 15.2941176471 0.0
10.0 16.4705882353 0.0
10.0 17.6470588235 0.0
10.0 18.8235294118 0.0
8.8 20.0 0.0
7.6 20.0 0.0
6.39999999999 20.0 0.0
5.19999999999 20.0 0.0
4.0 20.0 0.0
2.8 20.0 0.0
1.6 20.0 0.0
0.400000000005 20.0 0.0
-0.79999999999 20.0 0.0
-1.99999999999 20.0 0.0
-3.19999999998 20.0 0.0
-4.39999999998 20.0 0.0
-5.59999999997 20.0 0.0
-6.79999999998 20.0 0.0
-7.99999999998 20.0 0.0
-9.19999999998 20.0 0.0
-10.4 20.0 0.0
-11.6 20.0 0.0
-12.8 20.0 0.0
-14.0 20.0 0.0
-15.2 20.0 0.0
-16.4 20.0 0.0
-17.6 20.0 0.0
-18.8 20.0 0.0
-20.0 18.8888888889 0.0
-20.0 17.7777777778 0.0
-20.0 16.6666666667 0.0
-20.0 15.5555555556 0.0
-20.0 14.4444444444 0.0
-20.0 13.3333333333 0.0
-20.0 12.2222222222 0.0
-20.0 11.1111111111 0.0
-18.8650027336 10.0 0.0
-17.813310278 10.0 0.0
-16.8388083846 10.0 0.0
-15.9358314798 10.0 0.0
-15.0991299341 10.0 0.0
-14.3238392211 10.0 0.0
-13.6054522927 10.0 0.0
-12.9397923214 10.0 0.0
-12.3229895186 10.0 0.0
-11.7514578516 10.0 0.0
-11.2218745847 10.0 0.0
-10.7311608998 10.0 0.0
-10.2764639398 10.0 0.0
-9.85514009809 10.0 0.0
-9.46473993718 10.0 0.0
-9.10299376652 10.0 0.0
-8.76779846999 10.0 0.0
-8.45720535465 10.0 0.0
-8.16940869126 10.0 0.0
-7.90273530971 10.0 0.0
-7.65563480469 10.0 0.0
-7.42667061625 10.0 0.0
-7.21451157725 10.0 0.0
-7.01792427638 10.0 0.0
-6.83576580446 10.0 0.0
-6.66697710929 10.0 0.0
-6.51057691162 10.0 0.0
-6.36565595492 10.0 0.0
-6.23137167006 10.0 0.0
-6.10694339793 10.0 0.0
-5.99164772416 10.0 0.0
-5.88481433485 10.0 0.0
-5.78582216167 10.0 0.0
-5.69409565458 10.0 0.0
-5.60910153833 10.0 0.0
-5.53034570218 10.0 0.0
-5.45737027246 10.0 0.0
-5.38975097877 10.0 0.0
-5.32709470476 10.0 0.0
-5.26903718838 10.0 0.0
-5.21524088515 10.0 0.0
-5.16539304215 10.0 0.0
-5.11920385255 10.0 0.0
-5.07640479059 10.0 0.0
-5.03674702257 10.0 0.0
-4.96413737767 9.99987138558 0.0
-4.92827660031 9.99948554893 0.0
-4.89241951282 9.9988425099 0.0
-4.85656795989 9.99794230157 0.0
-4.82072378593 9.99678497027 0.0
-4.78488883498 9.99537057551 0.0
-4.74906495058 9.99369919008 0.0
-4.71325397573 9.99177089995 0.0
-4.67745775275 9.98958580433 0.0
-4.64167812321 9.98714401563 0.0
-4.60591692781 9.98444565947 0.0
-4.57017600631 9.98149087467 0.0
-4.53445719745 9.97827981325 0.0
-4.49876233879 9.97481264039 0.0
-4.46309326668 9.97108953447 0.0
-4.42745181616 9.96711068703 0.0
-4.39183982081 9.96287630276 0.0
-4.35625911274 9.9583865995 0.0
-4.32071152241 9.95364180823 0.0
-4.2851988786 9.94864217305 0.0
-4.24972300828 9.94338795116 0.0
-4.21428573654 9.93787941288 0.0
-4.17888888647 9.9321168416 0.0
-4.1435342791 9.92610053378 0.0
-4.10822373326 9.91983079893 0.0
-4.07295906554 9.9133079596 0.0
-4.03774209015 9.90653235136 0.0
-4.00257461886 9.89950432279 0.0
-3.96745846088 9.89222423546 0.0
-3.9323954228 9.88469246389 0.0
-3.89738730846 9.87690939556 0.0
-3.86243591888 9.86887543087 0.0
-3.82754305215 9.86059098315 0.0
-3.79271050337 9.85205647858 0.0
-3.75794006453 9.84327235624 0.0
-3.72323352442 9.83423906803 0.0
-3.68859266854 9.82495707867 0.0
-3.65401927902 9.81542686568 0.0
-3.61951513452 9.80564891936 0.0
-3.58508201011 9.79562374274 0.0
-3.55072167726 9.78535185156 0.0
-3.51643590364 9.77483377428 0.0
-3.48222645311 9.764070052 0.0
-3.44809508561 9.75306123848 0.0
-3.41404355706 9.74180790006 0.0
-3.38007361925 9.73031061569 0.0
-3.3461870198 9.71856997686 0.0
-3.31238550203 9.70658658757 0.0
-3.27867080489 9.69436106431 0.0
-3.24504466285 9.68189403603 0.0
-3.21150880584 9.66918614412 0.0
-3.17806495913 9.65623804233 0.0
-3.14471484327 9.6430503968 0.0
-3.11146017398 9.62962388597 0.0
-3.07830266208 9.61595920058 0.0
-3.04524401337 9.60205704362 0.0
-3.01228592859 9.5879181303 0.0
-2.97943010329 9.573543188 0.0
-2.94667822776 9.55893295626 0.0
-2.91403198694 9.5440881867 0.0
-2.88149306036 9.52900964303 0.0
-2.84906312199 9.51369810098 0.0
-2.81674384022 9.49815434826 0.0
-2.78453687775 9.48237918454 0.0
-2.75244389148 9.46637342136 0.0
-2.72046653246 9.45013788218 0.0
-2.6886064458 9.43367340222 0.0
-2.65686527055 9.41698082853 0.0
-2.62524463967 9.40006101987 0.0
-2.59374617991 9.38291484668 0.0
-2.56237151172 9.36554319107 0.0
-2.53112224921 9.34794694674 0.0
-2.50000000001 9.33012701893 0.0
-2.46900636523 9.3120843244 0.0
-2.43814293936 9.29381979138 0.0
-2.40741131021 9.2753343595 0.0
-2.37681305877 9.25662897976 0.0
-2.3463497592 9.23770461447 0.0
-2.3160229787 9.2185622372 0.0
-2.28583427747 9.19920283276 0.0
-2.25578520858 9.1796273971 0.0
-2.22587731793 9.15983693729 0.0
-2.19611214416 9.13983247147 0.0
-2.16649121855 9.11961502879 0.0
-2.13701606498 9.09918564935 0.0
-2.10768819982 9.07854538415 0.0
-2.07850913186 9.05769529504 0.0
-2.04948036225 9.03663645468 0.0
-2.02060338439 9.01536994646 0.0
-1.99187968388 8.99389686444 0.0
-1.96331073843 8.97221831332 0.0
-1.9348980178 8.95033540838 0.0
-1.90664298369 8.9282492754 0.0
-1.87854708972 8.90596105061 0.0
-1.85061178129 8.88347188065 0.0
-1.82283849556 8.8607829225 0.0
-1.79522866134 8.8378953434 0.0
-1.76778369905 8.81481032082 0.0
-1.74050502061 8.7915290424 0.0
-1.7133940294 8.76805270584 0.0
-1.68645212016 8.74438251892 0.0
-1.65968067894 8.72051969936 0.0
-1.63308108301 8.69646547481 0.0
-1.60665470082 8.67222108274 0.0
-1.58040289188 8.64778777044 0.0
-1.55432700675 8.62316679489 0.0
-1.52842838691 8.59835942274 0.0
-1.50270836475 8.57336693022 0.0
-1.47716826344 8.54819060309 0.0
-1.45180939692 8.52283173657 0.0
-1.42663306979 8.49729163526 0.0
-1.40164057727 8.4715716131 0.0
-1.37683320512 8.44567299326 0.0
-1.35221222957 8.41959710813 0.0
-1.32777891727 8.39334529919 0.0
-1.30353452521 8.366918917 0.0
-1.27948030065 8.34031932107 0.0
-1.25561748109 8.31354787985 0.0
-1.23194729417 8.28660597061 0.0
-1.20847095761 8.2594949794 0.0
-1.18518967919 8.23221630096 0.0
-1.16210465661 8.20477133867 0.0
-1.13921707751 8.17716150446 0.0
-1.11652811936 8.14938821872 0.0
-1.0940389494 8.12145291029 0.0
-1.07175072461 8.09335701632 0.0
-1.04966459163 8.06510198221 0.0
-1.02778168669 8.03668926158 0.0
-1.00610313557 8.00812031613 0.0
-0.984630053552 7.97939661562 0.0
-0.963363545327 7.95051963776 0.0
-0.942304704967 7.92149086815 0.0
-0.921454615862 7.89231180019 0.0
-0.90081435066 7.86298393503 0.0
-0.880384971216 7.83350878146 0.0
-0.860167528534 7.80388785585 0.0
-0.840163062717 7.77412268208 0.0
-0.82037260291 7.74421479143 0.0
-0.800797167248 7.71416572254 0.0
-0.781437762805 7.68397702131 0.0
-0.762295385539 7.65365024081 0.0
-0.743371020246 7.62318694124 0.0
-0.724665640503 7.5925886898 0.0
-0.706180208624 7.56185706065 0.0
-0.687915675605 7.53099363478 0.0
-0.66987298108 7.5 0.0
-0.652053053269 7.4688777508 0.0
-0.634456808932 7.43762848829 0.0
-0.617085153321 7.4062538201 0.0
-0.599938980135 7.37475536034 0.0
-0.58301917147 7.34313472946 0.0
-0.566326597781 7.31139355421 0.0
-0.549862117829 7.27953346755 0.0
-0.533626578641 7.24755610853 0.0
-0.517620815469 7.21546312226 0.0
-0.50184565174 7.18325615978 0.0
-0.486301899021 7.15093687802 0.0
-0.470990356971 7.11850693965 0.0
-0.455911813304 7.08596801306 0.0
-0.441067043748 7.05332177225 0.0
-0.426456812003 7.02056989672 0.0
-0.412081869704 6.98771407142 0.0
-0.397942956381 6.95475598663 0.0
-0.384040799421 6.92169733793 0.0
-0.370376114032 6.88853982602 0.0
-0.356949603203 6.85528515674 0.0
-0.343761957671 6.82193504088 0.0
-0.330813855886 6.78849119417 0.0
-0.318105963973 6.75495533716 0.0
-0.305638935697 6.72132919512 0.0
-0.293413412437 6.68761449797 0.0
-0.281430023142 6.6538129802 0.0
-0.269689384307 6.61992638075 0.0
-0.25819209994 6.58595644295 0.0
-0.246938761526 6.55190491439 0.0
-0.235929948002 6.51777354689 0.0
-0.225166225724 6.48356409637 0.0
-0.214648148442 6.44927832275 0.0
-0.204376257265 6.41491798989 0.0
-0.194351080639 6.38048486549 0.0
-0.184573134316 6.34598072098 0.0
-0.175042921332 6.31140733146 0.0
-0.165760931974 6.27676647558 0.0
-0.156727643762 6.24205993547 0.0
-0.14794352142 6.20728949663 0.0
-0.139409016855 6.17245694785 0.0
-0.13112456913 6.13756408113 0.0
-0.123090604445 6.10261269154 0.0
-0.115307536114 6.0676045772 0.0
-0.107775764543 6.03254153912 0.0
-0.100495677209 5.99742538114 0.0
-0.093467648642 5.96225790985 0.0
-0.0866920404046 5.92704093447 0.0
-0.080169201073 5.89177626674 0.0
-0.0738994662197 5.85646572091 0.0
-0.067883158396 5.82111111353 0.0
-0.0621205871156 5.78571426346 0.0
-0.0566120488383 5.75027699172 0.0
-0.0513578269551 5.7148011214 0.0
-0.0463581917735 5.67928847759 0.0
-0.0416134005035 5.64374088726 0.0
-0.0371236972447 5.60816017919 0.0
-0.0328893129732 5.57254818384 0.0
-0.0289104655302 5.53690673332 0.0
-0.0251873596105 5.50123766122 0.0
-0.0217201867523 5.46554280255 0.0
-0.0185091253269 5.42982399369 0.0
-0.0155543405298 5.39408307219 0.0
-0.0128559843721 5.35832187679 0.0
-0.010414195673 5.32254224725 0.0
-0.00822910005203 5.28674602427 0.0
-0.00630080992318 5.25093504942 0.0
-0.00462942448881 5.21511116502 0.0
-0.00321502973463 5.17927621407 0.0
-0.00205769842527 5.14343204011 0.0
-0.00115749010052 5.10758048718 0.0
-0.000514451072299 5.07172339969 0.0
-0.000128614422241 5.03586262233 0.0
0.0 4.96210871268 0.0
0.0 4.91493291879 0.0
0.0 4.85619761383 0.0
0.0 4.78307039291 0.0
0.0 4.69202478373 0.0
0.0 4.57867022864 0.0
0.0 4.43754040407 0.0
0.0 4.26182947167 0.0
0.0 4.043064028 0.0
0.0 3.77069445193 0.0
0.0 3.43158604656 0.0
0.0 3.0093857748 0.0
[...]
POINT_DATA 3379
VECTORS Displacement float
0.0 0.0 0
0.0 0.0 0
-0.230016531111 0.0534707767981 0
-0.2 -0.178440636979 0
-0.2 -0.171411470421 0
-0.134944839137 -0.10736965485 0
-0.0460887735278 -0.0389211154439 0
0.0 0.0 0
0.0 0.0 0
0.0 0.0 0
0.0 0.0 0
0.0 0.0 0
0.0 0.0 0
0.0 0.0 0
0.0 0.0 0
-0.0115092877267 0.0119550592769 0
-0.0206280593783 0.0209471588845 0
-0.0312530673959 0.0288462648843 0
-0.0428668467369 0.0353775277843 0
-0.0558706265618 0.0410075544955 0
-0.0700356492309 0.0453870229012 0
-0.0845739310503 0.0486631904221 0
-0.0997780383751 0.0510979333799 0
-0.114863861005 0.0526686690041 0
-0.130007065587 0.0535352860932 0
-0.144914358258 0.0539561071011 0
-0.15958337596 0.0540867870651 0
-0.173966353085 0.0540119894452 0
-0.188158003576 0.0538430894594 0
-0.202151413697 0.0536982938117 0
-0.216095255374 0.0535613839724 0
-0.229922891917 0.0392506607457 0
-0.22978150514 0.0250455556437 0
-0.229626341907 0.0108877403482 0
-0.229437450054 -0.00315462340768 0
-0.229222073741 -0.0170961093722 0
-0.228909654232 -0.0309286011379 0
-0.228531822075 -0.0445819943642 0
-0.227991856796 -0.0580437607143 0
-0.227247750441 -0.0711191900621 0
-0.22623947344 -0.0837782259103 0
-0.224957228139 -0.0959445991224 0
-0.223443198762 -0.107320095479 0
-0.221823401097 -0.117931267475 0
-0.220106246777 -0.127692740966 0
-0.218299468188 -0.136578696568 0
-0.216420176439 -0.144589984871 0
-0.214579161815 -0.151715255002 0
-0.212597713728 -0.157947352184 0
-0.210855325643 -0.163466936447 0
-0.208957425993 -0.167947124254 0
-0.207195047279 -0.171695155479 0
-0.205357031597 -0.174650937831 0
-0.203567602535 -0.17650095151 0
-0.201725481389 -0.177865636078 0
-0.2 -0.178886854448 0
-0.2 -0.179166555606 0
-0.2 -0.179072625985 0
-0.2 -0.178714957022 0
-0.2 -0.177929418486 0
-0.2 -0.176779956813 0
-0.2 -0.175360210226 0
-0.2 -0.173480559875 0
-0.195220092965 -0.170976047321 0
-0.190660277725 -0.170024098377 0
-0.186553892259 -0.168530293558 0
-0.182676326405 -0.16663455711 0
-0.179042977888 -0.16445454631 0
-0.175749244648 -0.162093603767 0
-0.172705003076 -0.15958339087 0
-0.169865615299 -0.156978988571 0
-0.16719573644 -0.154368092 0
-0.164754973952 -0.151735481143 0
-0.16249600178 -0.149147341497 0
-0.160388780894 -0.146595972256 0
-0.158454188199 -0.14410868252 0
-0.156637782169 -0.141716129887 0
-0.154960378181 -0.139401648476 0
-0.153409153624 -0.137183552675 0
-0.151969028881 -0.135061968124 0
-0.150631551832 -0.133042462584 0
-0.149395163284 -0.131124474442 0
-0.148244537964 -0.129309983206 0
-0.147164891853 -0.127604065576 0
-0.146167713244 -0.125989214786 0
-0.145236761115 -0.124470566031 0
-0.14437623115 -0.123040643942 0
-0.143570237415 -0.121700127728 0
-0.142817153675 -0.120443534847 0
-0.142118498195 -0.119266172053 0
-0.14146787633 -0.11816386946 0
-0.140860088297 -0.117135574593 0
-0.140294222146 -0.116174247533 0
-0.139765422041 -0.115280172078 0
-0.139272554205 -0.114445073161 0
-0.138811299457 -0.113667973498 0
-0.138381615288 -0.112942278311 0
-0.137979304146 -0.112268838508 0
-0.13760378848 -0.111642560046 0
-0.137252503578 -0.111059789051 0
-0.136924314685 -0.110518165636 0
-0.136616992596 -0.110014268883 0
-0.136329313473 -0.109547615733 0
-0.13606023847 -0.109113250734 0
-0.135807999192 -0.108711026485 0
-0.135571638705 -0.108336567917 0
-0.135349893187 -0.107989676266 0
-0.135141551644 -0.107667371366 0
-0.134749073043 -0.107076490845 0
-0.134547429017 -0.106784418521 0
-0.134341659444 -0.106488846463 0
-0.134130097146 -0.106192760115 0
-0.133915977709 -0.105894313401 0
-0.133697500256 -0.105595573279 0
-0.133476237429 -0.10529553344 0
-0.133249611311 -0.104994118241 0
-0.133021547602 -0.104691445609 0
-0.132789663856 -0.104385870867 0
-0.132552588719 -0.104081534734 0
-0.132313794474 -0.103773435782 0
-0.13207018128 -0.103465375233 0
-0.131824808281 -0.103156663163 0
-0.131577120174 -0.102846184087 0
-0.131325172358 -0.102534280215 0
-0.131069180565 -0.102222108208 0
-0.130811549165 -0.101907780597 0
-0.130550120126 -0.101592594221 0
-0.130286927516 -0.10127792585 0
-0.130020872897 -0.100960063653 0
-0.129750064002 -0.100642310807 0
-0.129478165632 -0.100321966245 0
-0.129202501075 -0.100001560612 0
-0.128924960892 -0.099679590789 0
-0.128644006071 -0.099357094163 0
-0.128361229986 -0.0990338852331 0
-0.128075025141 -0.0987097489398 0
-0.127787020247 -0.0983857090105 0
-0.127494913191 -0.0980595217073 0
-0.127200961497 -0.0977329051291 0
-0.126904893691 -0.0974050388363 0
-0.126605075456 -0.0970764607667 0
-0.126304487244 -0.0967478846886 0
-0.125999916095 -0.0964179833944 0
-0.125692191604 -0.0960876419631 0
-0.125383243398 -0.0957568825927 0
-0.125070317341 -0.0954248747285 0
-0.124756012069 -0.0950912002091 0
-0.124440049049 -0.0947574279318 0
-0.124121241378 -0.0944239742366 0
-0.123798655532 -0.0940898419018 0
-0.12347461937 -0.0937537932307 0
-0.123147069167 -0.0934174508582 0
-0.122818669329 -0.093081875194 0
-0.122488222166 -0.0927450672424 0
-0.122154518303 -0.0924065795668 0
-0.121817732781 -0.092069204872 0
-0.121479490002 -0.091730945991 0
-0.121137672037 -0.0913916430869 0
-0.12079518538 -0.0910531661528 0
-0.120450715712 -0.0907133595834 0
-0.120102778842 -0.0903724400743 0
-0.119752342549 -0.0900322150541 0
-0.119401157025 -0.0896921311746 0
-0.119046254775 -0.0893509293308 0
-0.118688333544 -0.0890096765797 0
-0.118329369567 -0.0886682440013 0
-0.11796919957 -0.0883262317553 0
-0.117605045943 -0.0879841972891 0
-0.117240615311 -0.0876424027438 0
-0.116873188267 -0.0872984230022 0
-0.116502610252 -0.0869568015052 0
-0.116130813831 -0.0866130766219 0
-0.11575545164 -0.0862695495794 0
-0.115379437762 -0.0859267744617 0
-0.115001813736 -0.0855829749668 0
-0.114621467227 -0.0852390438062 0
-0.11423798194 -0.0848956966181 0
-0.113854038598 -0.0845524137928 0
-0.113466333938 -0.0842085211152 0
-0.113078549064 -0.083864055699 0
-0.112687346469 -0.0835209732119 0
-0.112294859389 -0.0831764956434 0
-0.111898929878 -0.0828321320671 0
-0.111502516976 -0.082488613236 0
-0.111104658076 -0.0821443711395 0
-0.110704283915 -0.0818002795901 0
-0.110301005709 -0.0814569203451 0
-0.109897629749 -0.0811145036163 0
-0.109490304502 -0.0807711296968 0
-0.109083232405 -0.0804277153843 0
-0.108672301265 -0.0800850625275 0
-0.108260443913 -0.0797412638589 0
-0.107846051208 -0.0793981257416 0
-0.10743071367 -0.079055543571 0
-0.10701238882 -0.0787128725806 0
-0.106593787484 -0.0783710694616 0
-0.106171969299 -0.0780285734526 0
-0.105749858918 -0.0776869216063 0
-0.10532472056 -0.0773453355979 0
-0.104898713703 -0.0770042363251 0
-0.104470026619 -0.0766628943426 0
-0.104040945082 -0.0763226087147 0
-0.103608933303 -0.0759818389567 0
-0.103176437533 -0.0756417928631 0
-0.102741274856 -0.0753018218616 0
-0.102305402815 -0.0749628496103 0
-0.101866922225 -0.0746235667359 0
-0.101428248741 -0.0742854028835 0
-0.10098646483 -0.0739466597473 0
-0.100544945326 -0.0736091019522 0
-0.100100286993 -0.0732716237249 0
-0.0996552567254 -0.0729346643512 0
-0.0992077218031 -0.0725978827375 0
-0.0987591949189 -0.0722622792064 0
-0.0983095255291 -0.0719265621906 0
-0.0978582746342 -0.0715917769775 0
-0.0974058267092 -0.0712570668902 0
-0.0969511179327 -0.0709218106182 0
-0.0964959916949 -0.0705884608973 0
-0.0960384856823 -0.0702557406347 0
-0.0955809261093 -0.0699229488291 0
-0.0951208586755 -0.0695901989042 0
-0.0946605162038 -0.069258871043 0
-0.0941988807291 -0.0689274742386 0
-0.0937363977498 -0.068596715121 0
-0.0932718084702 -0.0682667796404 0
-0.0928067583772 -0.0679378983036 0
-0.0923391220298 -0.0676084553071 0
-0.0918719369277 -0.0672802072177 0
-0.091402401169 -0.066951821016 0
-0.0909332675693 -0.0666248855565 0
-0.090461710195 -0.0662980171184 0
-0.0899898925439 -0.0659720015975 0
-0.0895177943339 -0.0656468624382 0
-0.0890434742887 -0.0653217016832 0
-0.0885692504487 -0.0649980302894 0
-0.0880929031969 -0.0646738945815 0
-0.087617589512 -0.0643514844295 0
-0.08714001834 -0.064029050828 0
-0.0866628106434 -0.0637082712748 0
-0.0861828493393 -0.0633869019514 0
-0.0857034020612 -0.0630664800415 0
-0.0852227547272 -0.0627461826325 0
-0.0847426167316 -0.0624278648896 0
-0.0842602091213 -0.0621093454369 0
-0.0837784949777 -0.0617921300174 0
-0.0832954929078 -0.0614753751573 0
-0.0828117599211 -0.0611592339423 0
-0.0823277487676 -0.0608437589566 0
-0.0818429260659 -0.0605287943816 0
-0.0813584079556 -0.0602143019566 0
-0.0808721526631 -0.0599000760472 0
-0.0803870260538 -0.0595874475838 0
-0.0799001405386 -0.0592745456354 0
-0.0794146528806 -0.0589635205891 0
-0.0789266970956 -0.0586522373485 0
-0.0784395547515 -0.0583424915201 0
-0.0779517459047 -0.0580326504212 0
-0.0774640379185 -0.0577242907001 0
-0.0769771999802 -0.0574172253044 0
-0.0764882972233 -0.0571093343038 0
-0.0760010392602 -0.0568030398635 0
-0.0755124916181 -0.0564973204075 0
-0.0750249267598 -0.0561923830202 0
-0.0745361518018 -0.0558879511231 0
-0.0740481699107 -0.0555840922168 0
-0.0735601923769 -0.0552811378851 0
-0.0730731640283 -0.0549791954883 0
-0.0725853787076 -0.0546771304168 0
-0.072098235477 -0.0543761269082 0
-0.071612742412 -0.0540767445831 0
-0.0711253183091 -0.0537778239747 0
-0.0706394100966 -0.0534799001557 0
-0.0701538643221 -0.0531816594955 0
-0.0696676273728 -0.052885147843 0
-0.0691819701596 -0.052589544101 0
-0.0686972804576 -0.0522946590485 0
-0.0682142330688 -0.0519998646591 0
-0.0677304737096 -0.0517059913631 0
-0.0672473080114 -0.0514139837241 0
-0.0667644490451 -0.0511216885037 0
-0.0662823755016 -0.0508297573649 0
-0.0658029282534 -0.0505399811529 0
-0.0653230074645 -0.0502498649518 0
-0.0648449871969 -0.0499617454652 0
-0.0643660781061 -0.0496736920746 0
-0.0638890142382 -0.0493873629891 0
-0.0634115320148 -0.0491003033073 0
-0.0629366829388 -0.0488154687755 0
-0.0624636329575 -0.0485322462119 0
-0.0619891476065 -0.0482482480272 0
-0.0615180180599 -0.0479657982573 0
-0.0610468862519 -0.0476838540507 0
-0.0605783984044 -0.047403696136 0
-0.0601104534753 -0.0471235586332 0
-0.0596452407782 -0.0468458482232 0
-0.0591796913263 -0.0465682560738 0
-0.0587161757737 -0.0462929910889 0
-0.058253058038 -0.0460172193135 0
-0.0577920601153 -0.0457442252319 0
-0.0573335130841 -0.0454726477294 0
-0.0568745156805 -0.0451996922305 0
-0.0564179149922 -0.0449285484956 0
-0.0559620874891 -0.0446598180011 0
-0.0555101073189 -0.044392039981 0
-0.0550583550172 -0.0441239182301 0
-0.0546099622438 -0.0438582948815 0
-0.0541626773645 -0.0435932621173 0
-0.0537177281025 -0.0433308134087 0
-0.0532743124391 -0.0430683703312 0
-0.0528332985963 -0.0428090335506 0
-0.0523962240874 -0.0425514103986 0
-0.0519583807466 -0.0422936052447 0
-0.0515240313084 -0.0420389580522 0
-0.051090686781 -0.0417842263084 0
-0.0506599747986 -0.0415322339148 0
-0.0502322115239 -0.0412832181153 0
-0.0498066785602 -0.0410359783814 0
-0.0493847189636 -0.0407905663761 0
-0.0489632022355 -0.040546343089 0
-0.0485453667854 -0.0403047684981 0
-0.0481293279321 -0.0400661536092 0
-0.0477154149743 -0.0398300458217 0
-0.0473058395643 -0.0395975009824 0
-0.046898124672 -0.0393673726463 0
-0.0464923400427 -0.0391414962718 0
-0.0456649497375 -0.0386903229935 0
-0.0451401618237 -0.0384045352603 0
-0.0444888373256 -0.0380515492374 0
-0.0436828159528 -0.0376131743385 0
-0.0426891934398 -0.0370656894627 0
-0.0414662023304 -0.0363792518723 0
-0.0399674136832 -0.0355189076008 0
-0.0381359125909 -0.0344390883203 0
-0.0359032876553 -0.0330842313902 0
-0.0331822929685 -0.0313372456921 0
-0.0299277767253 -0.029138390079 0
-0.0260628769084 -0.026247211727 0
-0.0215935201994 -0.0225655479376 0
-0.0162250983916 -0.0175938836818 0
-0.00997812094884 -0.0106441833537 0
-0.150344348191 -0.0207947425018 0
-0.0833278986263 -0.00389076241944 0
-0.173451246738 -0.0803151001534 0
-0.18071000479 -0.126287415107 0
-0.0399399197525 -0.00891809741869 0
-0.112780912984 -0.0341548291788 0
-0.140288389141 -0.0661880949231 0
-0.153865024121 -0.0952970440251 0
-0.0776595629652 -0.0249259456574 0
-0.159324571909 -0.117275950432 0
-0.0523023068292 -0.0229732843887 0
-0.0954904105138 -0.0427430113383 0
-0.116812642802 -0.0595401361317 0
-0.128467863085 -0.0766397331628 0
-0.137989431649 -0.0912322421758 0
-0.147120009186 -0.105661800795 0
-0.076662644239 -0.0387933560595 0
-0.0613599756235 -0.0342628097223 0
-0.086606661417 -0.0483275893474 0
-0.101001577791 -0.0569112738135 0
-0.110278694972 -0.0667300649926 0
-0.118172500243 -0.07552668981 0
-0.125868097455 -0.0840071216784 0
-0.0491834255614 -0.0307956574881 0
-0.137629038458 -0.0997345523053 0
-0.140282168978 -0.106228096523 0
-0.147788899342 -0.115622620992 0
-0.129554191561 -0.0911282847756 0
-0.0767082818544 -0.0467734369639 0
-0.0676423539556 -0.0424524340134 0
-0.187158656247 -0.15800137296 0
-0.0916303927216 -0.0564797528255 0
-0.167587363117 -0.136918712348 0
-0.0974442147 -0.0625626631187 0
-0.102731047639 -0.0670139690496 0
-0.131138535867 -0.0960525510973 0
-0.0305975558945 -0.0175919207886 0
-0.107655509326 -0.0717705431785 0
-0.0610542217858 -0.0406700247857 0
-0.0541715312394 -0.0371284793383 0
-0.141782921505 -0.11120565611 0
-0.133741702493 -0.100259794004 0
-0.0814451203664 -0.0524108345892 0
-0.111704846595 -0.0758710990301 0
-0.116626216171 -0.0800793712729 0
-0.11992842224 -0.0840936259222 0
-0.123551692788 -0.0880846486096 0
-0.155444136909 -0.126738692648 0
-0.135500560936 -0.103640201538 0
-0.137611043521 -0.106864152119 0
-0.0489191944186 -0.0356229820936 0
-0.0404189257448 -0.0288126606706 0
-0.0854705462025 -0.0563952161027 0
-0.0718647678096 -0.0479687939131 0
-0.0444519871586 -0.0341156638886 0
-0.0754329599115 -0.0510224097633 0
-0.125520759472 -0.0914361116872 0
-0.0919529977846 -0.0614037722531 0
-0.127034963729 -0.0939294134924 0
-0.13841284766 -0.109308970825 0
-0.0675824157523 -0.0469894743495 0
-0.0637952014476 -0.0452239424045 0
-0.0980826500148 -0.0664322208059 0
-0.14542695012 -0.0816716985814 0
-0.130369844024 -0.0979912985724 0
-0.19159073371 -0.171860114577 0
-0.0877000738332 -0.0597267693103 0
-0.143053403769 -0.115074947527 0
-0.148500701597 -0.121529364663 0
-0.0577275860796 -0.0416187751507 0
-0.103094173089 -0.070627727112 0
-0.0940335278513 -0.0646074991061 0
-0.171753502238 -0.150072276513 0
-0.112548995288 -0.0790622673391 0
-0.173006354311 -0.109118846939 0
-0.0518744064025 -0.0387717615723 0
-0.0606864542419 -0.0440509462696 0
-0.116240859802 -0.0829594731685 0
-0.107326233123 -0.0752397878713 0
-0.119931611962 -0.0867251355231 0
-0.132873985352 -0.101745008264 0
-0.0818512435326 -0.0564269686931 0
-0.07862602915 -0.0543601659257 0
-0.135033415884 -0.105010714117 0
-0.0547315373625 -0.0410907156047 0
-0.118657214087 -0.00989855162234 0
-0.162928744369 -0.0518355975211 0
-0.0997010065567 -0.0689617510481 0
-0.145993977307 -0.0982884404712 0
-0.104446874516 -0.0731412448786 0
-0.13085684413 -0.0996567665602 0
-0.128210579718 -0.0962551836246 0
-0.109683427088 -0.0775863032361 0
-0.117612856916 -0.0850141738814 0
-0.121347714998 -0.0887249869306 0
-0.113648023442 -0.0813521787097 0
-0.135738244357 -0.106485296873 0
-0.133543306925 -0.103343326042 0
-0.128234772811 -0.0490388430821 0
-0.157820859023 -0.134473287809 0
-0.0473573069596 -0.0371011136934 0
-0.0728525929434 -0.0514758355815 0
-0.0702421227685 -0.0500645743363 0
-0.0490474000502 0.0117154871588 0
-0.107882354379 -0.0494778435234 0
-0.0950190533938 -0.0503243944655 0
-0.159682080933 -0.107063432924 0
-0.0953545121449 -0.0292112062391 0
-0.191922317381 -0.0315345345367 0
-0.176660411361 0.00995778319108 0
-0.146634033246 -0.11069862588 0
-0.139232907318 -0.111300045993 0
-0.181446869519 -0.162620173516 0
-0.120030448167 -0.0679950142444 0
-0.0495408302644 -0.0386783968217 0
-0.12480085714 -0.0927661173554 0
-0.197290442652 -0.0989223201877 0
-0.0686316864816 -0.0289660233974 0
-0.045344696627 -0.0365965013291 0
-0.0889409495803 -0.0622296069064 0
-0.085001403971 -0.0594348009255 0
-0.0762442198905 -0.0540605202575 0
-0.122757658515 -0.0905275386299 0
-0.0616606963308 -0.0180041910998 0
-0.184111294312 -0.144477876205 0
-0.113502478684 -0.0719728272742 0
-0.0952253052004 -0.0667363829667 0
-0.0914360436505 -0.063868510686 0
-0.0852566911316 -0.033970606137 0
-0.133959022695 -0.0840475691548 0
-0.106622748053 0.0180881076919 0
-0.136137496208 -0.107599119417 0
-0.097018509222 -0.0682310027063 0
-0.135360836981 -0.032755868268 0
-0.189202512913 -0.0595793009069 0
-0.0655436427692 -0.0478986611136 0
-0.0184487109769 0.00230084118542 0
-0.157004104251 -0.0734758093522 0
-0.137148167217 -0.109026640026 0
-0.143958345723 0.00609693444002 0
-0.121810831519 -0.0797190058429 0
-0.0420530956704 -0.0232664537951 0
-0.0856534181366 -0.0408719045193 0
-0.13518497323 -0.0946382135054 0
-0.10290838557 -0.0619260414174 0
-0.198033340791 -0.168744323369 0
-0.16482020483 -0.127723897106 0
-0.0827186894235 -0.0583810396892 0
-0.0797038977052 -0.0565759602978 0
-0.086117675199 -0.01645711214 0
-0.10532850769 -0.0205399503959 0
-0.0812124631384 -0.0434940599398 0
-0.0687769163269 -0.0365049891926 0
-0.199456449733 -0.135825243522 0
-0.13760531117 -0.102417114212 0
-0.100529447614 -0.0709733658403 0
-0.0680608235582 -0.0493599164715 0
-0.0566744597265 -0.0428855168721 0
-0.0587258394693 -0.0440744672408 0
-0.0593341803865 -0.00434722358487 0
-0.126265682225 -0.0948380225573 0
-0.129363784897 -0.0636690175759 0
-0.013228241703 -0.009175944781 0
-0.152095294363 -0.128326829803 0
-0.0186207479607 -0.0048074173604 0
-0.197740610083 -0.153132431654 0
-0.0425027115652 -0.034666796727 0
-0.0619681758699 -0.0460543502229 0
-0.12860507033 -0.0976256159691 0
-0.0740752903489 -0.0532627329631 0
-0.0725513443958 -0.0437958440857 0
-0.105032006671 -0.0746637040497 0
-0.102457060559 -0.0726825051338 0
-0.130956846161 -0.10064471861 0
-0.0533899360471 -0.0412619650719 0
-0.110145439113 -0.0791541373937 0
-0.107608066878 -0.0769518530839 0
-0.19886850471 -0.176588883777 0
-0.127327963877 -0.0874871959656 0
-0.119383647756 -0.0877868971049 0
-0.115663379366 -0.0841616498328 0
-0.117950539409 -0.0863788382163 0
-0.114164381911 -0.0827767927939 0
-0.111683141773 -0.0805287475802 0
-0.134491077125 -0.105406843834 0
-0.10472768953 -0.0387241279295 0
-0.0328517830872 -0.0260300486661 0
-0.109970605425 -0.0600784991169 0
-0.13363032557 -0.104212850533 0
-0.132191432052 -0.10227441339 0
-0.168024142851 -0.0941462591008 0
-0.155645660293 -0.121929957682 0
-0.163073005546 -0.142730616749 0
-0.0879413540006 -0.0529182085222 0
-0.081556745459 -0.0479937257361 0
-0.123158971073 -0.091714815593 0
-0.146108713535 -0.0530866576615 0
-0.143457101925 -0.117481451408 0
-0.0860724374186 -0.0610511558286 0
-0.15391763959 -0.111973103195 0
-0.0924329319019 -0.0653947890985 0
-0.0381051632411 -0.0310561099795 0
-0.0515765517659 -0.040336846535 0
-0.14563056906 -0.0909064097939 0
-0.0809809298044 -0.0579592874313 0
-0.114739789296 -0.0773976915941 0
-0.0639453956763 -0.0475216766191 0
-0.157623946427 -0.085501811477 0
-0.133068564555 -0.0889147411688 0
-0.125078927595 -0.0939070584946 0
-0.175860661605 -0.134703070948 0
-0.12923377157 -0.0986379808509 0
-0.0549860985779 -0.0321656855988 0
-0.0484923636383 -0.0388997758862 0
-0.106011445282 -0.0760407630033 0
-0.142418136495 -0.104149068242 0
-0.0552485586187 -0.0426674541477 0
-0.188714736465 -0.114718915437 0
-0.100669283268 -0.0642152011915 0
-0.0757919444803 0.0152458782396 0
-0.0605391296411 -0.0456742279728 0
-0.139984328639 -0.113128502273 0
-0.129762856248 -0.09347320591 0
-0.192772100461 -0.173943590417 0
-0.137760606564 -0.110176079187 0
-0.0774848600165 -0.0556743613847 0
-0.140156753679 -0.108920858956 0
-0.11688693247 -0.0450482303539 0
-0.173574968844 -0.156257718705 0
-0.0454928097987 -0.0315286895327 0
-0.170902530554 -0.122144145396 0
-0.0715680434354 -0.0519676993882 0
-0.0946070557523 -0.05920195865 0
-0.047220260824 -0.0384435393347 0
-0.122372863526 -0.086038349591 0
-0.0577450729185 -0.0380897174587 0
-0.0785123381207 -0.0498789806317 0
-0.1057541198 -0.0690474181358 0
-0.121023996684 -0.0896263267304 0
-0.140695909311 -0.09723088462 0