# vtk DataFile Version 2.0
Generated with Solid Solver
ASCII
DATASET UNSTRUCTURED_GRID
POINTS 1163 float 
0.0 3.5 0.0
2.2 3.5 0.0
2.2 4.0 0.0
0.0 4.0 0.0
0.0687499999999 3.5 0.0
0.1375 3.5 0.0
0.20625 3.5 0.0
0.275 3.5 0.0
0.343749999999 3.5 0.0
0.412499999999 3.5 0.0
0.481249999999 3.5 0.0
0.549999999999 3.5 0.0
0.618749999998 3.5 0.0
0.687499999998 3.5 0.0
0.756249999998 3.5 0.0
0.824999999998 3.5 0.0
0.893749999998 3.5 0.0
0.962499999997 3.5 0.0
1.03125 3.5 0.0
1.1 3.5 0.0
1.16875 3.5 0.0
1.2375 3.5 0.0
1.30625 3.5 0.0
1.375 3.5 0.0
1.44375 3.5 0.0
1.5125 3.5 0.0
1.58125 3.5 0.0
1.65 3.5 0.0
1.71875 3.5 0.0
1.7875 3.5 0.0
1.85625 3.5 0.0
1.925 3.5 0.0
1.99375 3.5 0.0
2.0625 3.5 0.0
2.13125 3.5 0.0
2.2 3.56430812579 0.0
2.2 3.6227083524 0.0
2.2 3.67574343203 0.0
2.2 3.72390623714 0.0
2.2 3.76764438299 0.0
2.2 3.80736436348 0.0
2.2 3.84343531161 0.0
2.2 3.87619247056 0.0
2.2 3.90594026646 0.0
2.2 3.93295517223 0.0
2.2 3.9574882542 0.0
2.2 3.97976750927 0.0
2.18000003888 4.0 0.0
2.15999995974 4.0 0.0
2.13999995594 4.0 0.0
2.12000003893 4.0 0.0
2.0999999813 4.0 0.0
2.07999993507 4.0 0.0
2.06000001965 4.0 0.0
2.04000002354 4.0 0.0
2.01999993997 4.0 0.0
1.99999999426 4.0 0.0
1.98000004623 4.0 0.0
1.95999996625 4.0 0.0
1.93999996787 4.0 0.0
1.92000005069 4.0 0.0
1.90000001292 4.0 0.0
1.87999994967 4.0 0.0
1.86000003245 4.0 0.0
1.84000003166 4.0 0.0
1.81999995194 4.0 0.0
1.80000002065 4.0 0.0
1.78000005962 4.0 0.0
1.75999997703 4.0 0.0
1.73999998149 4.0 0.0
1.72000006236 4.0 0.0
1.70000000651 4.0 0.0
1.67999995967 4.0 0.0
1.66000004242 4.0 0.0
1.64000004304 4.0 0.0
1.61999996152 4.0 0.0
1.6000000096 4.0 0.0
1.58000006667 4.0 0.0
1.55999998704 4.0 0.0
1.53999998381 4.0 0.0
1.52000006764 4.0 0.0
1.5000000299 4.0 0.0
1.47999996242 4.0 0.0
1.46000004337 4.0 0.0
1.4400000454 4.0 0.0
1.41999996386 4.0 0.0
1.40000002834 4.0 0.0
1.38000006734 4.0 0.0
1.35999998576 4.0 0.0
1.33999998537 4.0 0.0
1.32000006658 4.0 0.0
1.30000001585 4.0 0.0
1.27999996279 4.0 0.0
1.26000004759 4.0 0.0
1.24000004493 4.0 0.0
1.2199999616 4.0 0.0
1.20000000906 4.0 0.0
1.18000006792 4.0 0.0
1.15999998616 4.0 0.0
1.13999999119 4.0 0.0
1.12000007157 4.0 0.0
1.1 4.0 0.0
1.07999992843 4.0 0.0
1.06000000881 4.0 0.0
1.04000001384 4.0 0.0
1.01999993209 4.0 0.0
0.999999990948 4.0 0.0
0.98000003841 4.0 0.0
0.959999955072 4.0 0.0
0.939999952416 4.0 0.0
0.920000037214 4.0 0.0
0.899999984154 4.0 0.0
0.879999933427 4.0 0.0
0.860000014636 4.0 0.0
0.840000014246 4.0 0.0
0.819999932662 4.0 0.0
0.79999997166 4.0 0.0
0.780000036145 4.0 0.0
0.759999954604 4.0 0.0
0.73999995663 4.0 0.0
0.72000003758 4.0 0.0
0.699999970103 4.0 0.0
0.679999932361 4.0 0.0
0.660000016189 4.0 0.0
0.640000012962 4.0 0.0
0.61999993333 4.0 0.0
0.599999990406 4.0 0.0
0.58000003848 4.0 0.0
0.559999956964 4.0 0.0
0.539999957581 4.0 0.0
0.520000040329 4.0 0.0
0.499999993489 4.0 0.0
0.479999937647 4.0 0.0
0.460000018512 4.0 0.0
0.440000022972 4.0 0.0
0.419999940378 4.0 0.0
0.399999979352 4.0 0.0
0.380000048063 4.0 0.0
0.359999968347 4.0 0.0
0.339999967553 4.0 0.0
0.320000050328 4.0 0.0
0.299999987077 4.0 0.0
0.279999949312 4.0 0.0
0.260000032129 4.0 0.0
0.240000033752 4.0 0.0
0.219999953776 4.0 0.0
0.200000005737 4.0 0.0
0.180000060031 4.0 0.0
0.159999976465 4.0 0.0
0.139999980354 4.0 0.0
0.120000064926 4.0 0.0
0.100000018697 4.0 0.0
0.0799999610675 4.0 0.0
0.0600000440571 4.0 0.0
0.0400000402596 4.0 0.0
0.0199999611169 4.0 0.0
0.0 3.97976750927 0.0
0.0 3.9574882542 0.0
0.0 3.93295517223 0.0
0.0 3.90594026646 0.0
0.0 3.87619247056 0.0
0.0 3.84343531161 0.0
0.0 3.80736436348 0.0
0.0 3.76764438299 0.0
0.0 3.72390623714 0.0
0.0 3.67574343203 0.0
0.0 3.6227083524 0.0
0.0 3.56430812579 0.0
0.249757963562 3.75212589829 0.0
1.94999996706 3.74954522137 0.0
0.488710285893 3.75947702441 0.0
0.726520490699 3.7655965719 0.0
0.967283134849 3.7597072979 0.0
1.20619032017 3.75831098673 0.0
1.45842774915 3.76733088374 0.0
1.69012076678 3.7622332834 0.0
0.130754044069 3.86878249167 0.0
2.06924595593 3.86878249167 0.0
1.8299999918 3.84622455633 0.0
1.56816462369 3.85034872999 0.0
0.369913859351 3.84868157925 0.0
0.608733620231 3.84706187144 0.0
1.33069778866 3.84790908234 0.0
0.84323446252 3.84762979148 0.0
1.08873170817 3.84705870913 0.0
0.250539365135 3.87785524304 0.0
1.94967747948 3.87849609822 0.0
1.73218750075 3.8916046151 0.0
0.468661874066 3.89189322974 0.0
1.47574192429 3.89639134117 0.0
0.704258110321 3.8963912684 0.0
1.18331258449 3.8976320365 0.0
0.949999953744 3.89208018478 0.0
1.64795374468 3.91749779939 0.0
0.548928463645 3.91905583847 0.0
1.38619509199 3.91928594438 0.0
0.788926872841 3.91906062101 0.0
1.27071160784 3.91777932845 0.0
1.02999997296 3.91685174433 0.0
1.81733541416 3.69950870754 0.0
1.86999999106 3.91823503401 0.0
0.071252620538 3.93011431841 0.0
2.12874737946 3.93011431841 0.0
2.07400690796 3.74293885365 0.0
0.125993092043 3.74293885365 0.0
0.32995676804 3.92118147353 0.0
2.00999996712 3.92542383197 0.0
0.190000032884 3.92542383197 0.0
1.56698738743 3.72218882919 0.0
1.33000000474 3.72531695685 0.0
0.848014510843 3.71986098938 0.0
1.09024665585 3.72285801424 0.0
0.610276609989 3.72290563624 0.0
1.54999998543 3.92414142844 0.0
0.629999973146 3.92414137652 0.0
0.869999974031 3.92414141814 0.0
1.11000003579 3.92414141267 0.0
1.79030638642 3.92649353654 0.0
0.370434802927 3.72513294336 0.0
0.410903135411 3.92892991244 0.0
1.33000002597 3.93737911571 0.0
0.129927648482 3.94112154503 0.0
2.07007235152 3.94112154503 0.0
1.93000000928 3.93875927586 0.0
0.26999999072 3.93875927586 0.0
1.40966706061 3.83880068991 0.0
0.770332962441 3.83880062149 0.0
1.24904900022 3.84293377683 0.0
1.01033287484 3.83880060723 0.0
0.530342681434 3.83880307444 0.0
0.189895273961 3.63486992823 0.0
2.00989835291 3.62845703161 0.0
0.998888153878 3.61665036233 0.0
1.47894673873 3.61675180774 0.0
0.51733910646 3.62937665489 0.0
0.705112628302 3.618743723 0.0
1.66672137035 3.63168728155 0.0
1.18508242495 3.61871739348 0.0
1.71000003443 3.94408608591 0.0
0.489999965568 3.94463856597 0.0
1.44983363802 3.94422347836 0.0
0.729999997105 3.94465012565 0.0
1.21016639734 3.94422345842 0.0
0.928621800545 3.94440037102 0.0
2.00626203014 3.81543543551 0.0
0.193627962274 3.81528928332 0.0
1.66628164144 3.83559795895 0.0
1.75661718781 3.81065958113 0.0
1.61143779865 3.94859227761 0.0
0.991673865748 3.95161238438 0.0
0.0604617941233 3.86281264864 0.0
2.13953820588 3.86281264865 0.0
0.300965570716 3.8114148258 0.0
0.2970894797 3.66361086085 0.0
0.398842167194 3.60449226805 0.0
1.51000004877 3.95218393067 0.0
1.90135619383 3.81213273629 0.0
0.669405272842 3.95495208979 0.0
1.07142780558 3.94866325309 0.0
0.592085094025 3.94901139323 0.0
0.831051660929 3.94633985879 0.0
1.14940528892 3.9549521224 0.0
0.44409344258 3.82719938178 0.0
1.49646539728 3.82376850413 0.0
0.683434082651 3.82631713605 0.0
0.92337834777 3.8234861632 0.0
1.16343437877 3.82631615351 0.0
1.90749084149 3.65350700271 0.0
1.8278758005 3.95083911942 0.0
0.37243073327 3.95235211027 0.0
1.29345662549 3.60569899261 0.0
0.813407949226 3.60572380122 0.0
1.29317153636 3.96216077293 0.0
1.367704599 3.96055764734 0.0
1.97071235041 3.96038324024 0.0
0.22928764959 3.96038324024 0.0
2.10610581798 3.66047411138 0.0
0.0938941820177 3.66047411138 0.0
1.67000000105 3.95862953468 0.0
1.74869816704 3.96079301687 0.0
0.531976761939 3.96138655466 0.0
0.451361042387 3.96112774725 0.0
0.771976832233 3.96138887156 0.0
1.88843481911 3.95881554986 0.0
1.61277513709 3.78538823015 0.0
2.13311214501 3.79435403671 0.0
0.0668878549946 3.79435403671 0.0
1.76678797151 3.60286552601 0.0
0.311702446283 3.9611157379 0.0
1.02877762737 3.96159282031 0.0
1.40830122607 3.96143175203 0.0
1.25214210333 3.957355862 0.0
1.59476493393 3.9048774062 0.0
1.56950979124 3.96148017208 0.0
0.890017020275 3.96125792969 0.0
2.03089110475 3.96040268709 0.0
0.169108895255 3.96040268709 0.0
0.939722125942 3.68539157065 0.0
1.41686981874 3.69192854313 0.0
0.0426348006718 3.96101756902 0.0
2.15736519933 3.96101756902 0.0
1.36077308019 3.79177204211 0.0
0.817982383499 3.78962669257 0.0
1.05834720932 3.78780184893 0.0
0.578349529346 3.78781530011 0.0
1.77992711518 3.87652731382 0.0
0.417982153133 3.87594990465 0.0
1.84363633012 3.77741329286 0.0
1.52244994479 3.87704541475 0.0
0.657426528912 3.87734838249 0.0
1.13742651778 3.87734834025 0.0
0.898116026439 3.8800466833 0.0
1.56984259435 3.64465823131 0.0
1.08983016076 3.6446495206 0.0
0.609942357805 3.64483976081 0.0
1.29451769374 3.79627773068 0.0
0.0893439668432 3.96574839433 0.0
2.11065603316 3.96574839433 0.0
2.01422398896 3.86980625824 0.0
0.185776011038 3.86980625824 0.0
0.305957237756 3.87340573745 0.0
1.72977480551 3.68665973332 0.0
1.25418096296 3.69351129461 0.0
0.629999973146 3.96272981435 0.0
1.11000003579 3.96272983221 0.0
0.772975283819 3.69297597031 0.0
1.89089074715 3.86951346173 0.0
0.445448577516 3.69456159386 0.0
1.82621986864 3.89678318705 0.0
2.07135424223 3.81165410377 0.0
0.128645757768 3.81165410377 0.0
0.373320289473 3.89968791662 0.0
1.79000004014 3.96541718891 0.0
0.383302070088 3.78976392323 0.0
0.409457623385 3.96502881851 0.0
1.55531527123 3.78787141386 0.0
1.34861332978 3.89383287415 0.0
0.593245985735 3.89483466551 0.0
0.833245353375 3.89479604398 0.0
1.0732444554 3.8948349405 0.0
0.911896623122 3.59194725763 0.0
0.187580554011 3.70699710313 0.0
2.01241944599 3.70699710313 0.0
1.39201907571 3.59233063354 0.0
2.09635520798 3.90516200201 0.0
0.103644792024 3.90516200201 0.0
1.89086147526 3.72621461413 0.0
1.02102684616 3.70044819701 0.0
1.49813234221 3.70194667869 0.0
0.53965669049 3.70593418829 0.0
1.63719578665 3.69772473547 0.0
0.685447658936 3.70127585046 0.0
1.16541741817 3.70128744764 0.0
0.901649266036 3.76287226775 0.0
0.992351690321 3.90662993531 0.0
1.69131894868 3.90657323657 0.0
1.9699561555 3.91599371502 0.0
0.230043844497 3.91599371502 0.0
1.61980840676 3.85005402918 0.0
2.04685187594 3.90639759008 0.0
0.153148124058 3.90639759008 0.0
0.512139828486 3.90538520837 0.0
1.43057458921 3.90702644399 0.0
0.749149996349 3.90689574876 0.0
[...]
POINT_DATA 1163
VECTORS Displacement float
0.0 0.0 0
0.0 0.0 0
0.0109793378455 -0.00132428435092 0
-0.00947019759129 -0.00187274891247 0
0.0 0.0 0
0.0 0.0 0
0.0 0.0 0
0.0 0.0 0
0.0 0.0 0
0.0 0.0 0
0.0 0.0 0
0.0 0.0 0
0.0 0.0 0
0.0 0.0 0
0.0 0.0 0
0.0 0.0 0
0.0 0.0 0
0.0 0.0 0
0.0 0.0 0
0.0 0.0 0
0.0 0.0 0
0.0 0.0 0
0.0 0.0 0
0.0 0.0 0
0.0 0.0 0
0.0 0.0 0
0.0 0.0 0
0.0 0.0 0
0.0 0.0 0
0.0 0.0 0
0.0 0.0 0
0.0 0.0 0
0.0 0.0 0
0.0 0.0 0
0.0 0.0 0
0.00407468906138 -0.00294417876103 0
0.00715271391368 -0.00372781616466 0
0.00943139279158 -0.00367824290251 0
0.0107761488339 -0.00324422764865 0
0.0115033201796 -0.00273640420433 0
0.0118045776618 -0.00224942754681 0
0.0118014235941 -0.001877537388 0
0.0116981900188 -0.00160864315676 0
0.0115162281174 -0.00143839820427 0
0.0113342101487 -0.00136168230199 0
0.011182704951 -0.00132940574381 0
0.0110677112328 -0.00132296482231 0
0.0109806773457 -0.0014089571502 0
0.0109788893743 -0.00147676199365 0
0.0109611252629 -0.00152709382763 0
0.0109186617069 -0.0015633069631 0
0.0108454639514 -0.00159468804424 0
0.0107377750682 -0.0016378344709 0
0.0105877382243 -0.00169061764998 0
0.0104022326686 -0.00178500079978 0
0.010169616321 -0.00191141182944 0
0.00990716695737 -0.00210008973067 0
0.00958778229149 -0.00234501900805 0
0.0092296662147 -0.00267780294559 0
0.00884299885143 -0.00310579521878 0
0.00840044907621 -0.00363029555133 0
0.00793791769891 -0.00428034050697 0
0.00741187149579 -0.00505495049194 0
0.00685467256679 -0.00599242423423 0
0.00625838311454 -0.0070847619251 0
0.00563153241573 -0.00838439626285 0
0.00493099749309 -0.00989729811232 0
0.00422680085433 -0.0116625609334 0
0.00353492545645 -0.0136985557064 0
0.00276845673596 -0.0160307011967 0
0.00201467443504 -0.0187254542358 0
0.00119068262473 -0.0218570192052 0
0.0004742286502 -0.0254392359808 0
-0.000309880635804 -0.0295717030471 0
-0.00114596663971 -0.0343448445574 0
-0.00208691718427 -0.0392592982791 0
-0.00062606620745 -0.0499031619844 0
0.00121906499455 -0.0595468361771 0
0.00323978520457 -0.0685667623671 0
0.00496765307942 -0.0772911943663 0
0.00649737101752 -0.0854226604878 0
0.00776479174312 -0.0931471117973 0
0.00880261786132 -0.1004190037 0
0.00957645963525 -0.107259229849 0
0.0101362895477 -0.113612144499 0
0.0103891429096 -0.119557298489 0
0.0104155065358 -0.12505514471 0
0.0102025488061 -0.130078356269 0
0.00978445073671 -0.134605658424 0
0.00913309720906 -0.138644889773 0
0.00830943919957 -0.142171867613 0
0.00731875400805 -0.145175833117 0
0.00616102471471 -0.147657899879 0
0.00487612810353 -0.149599794275 0
0.00347467464311 -0.150994239455 0
0.00197077384624 -0.151830459837 0
0.000277861495944 -0.152051416162 0
-0.00128818004157 -0.151835280607 0
-0.00274034741042 -0.151017792225 0
-0.00410762384319 -0.149644066941 0
-0.00538279815462 -0.147721063062 0
-0.00651392107015 -0.145261382724 0
-0.00749366745765 -0.142274177955 0
-0.00830225370827 -0.138765303991 0
-0.00892128696357 -0.134749715606 0
-0.00932005758678 -0.130246309739 0
-0.00955149764124 -0.125242587566 0
-0.00953984284982 -0.119771169481 0
-0.00923876470746 -0.113829355827 0
-0.00867187705895 -0.107488805405 0
-0.00782907324332 -0.100702252063 0
-0.0068121709843 -0.0934549460603 0
-0.005442309323 -0.0857863885979 0
-0.00396333535941 -0.0776747014975 0
-0.00220866910089 -0.0690154176492 0
-0.000236817665025 -0.0600058016036 0
0.00179829287655 -0.050471599886 0
0.00323985860309 -0.0398634923804 0
0.00241385486465 -0.0347513222161 0
0.00188283336132 -0.0298262168137 0
0.00119404541363 -0.0255496261006 0
0.000524001148885 -0.021882334516 0
-0.000166585031128 -0.0186899549535 0
-0.000867817469953 -0.0158913750664 0
-0.00155149538915 -0.0134456438761 0
-0.00217765069767 -0.0113101038484 0
-0.0028252247327 -0.00945622405577 0
-0.00341815536904 -0.00784533676084 0
-0.00398537155436 -0.00646809945542 0
-0.0044991277457 -0.00527335799704 0
-0.00499773115511 -0.00423739898682 0
-0.00544648119591 -0.0033461639314 0
-0.00588717861934 -0.00259770584469 0
-0.00627491693668 -0.00196412653986 0
-0.00663859858847 -0.00144796391419 0
-0.00695722903721 -0.00101021539954 0
-0.00726384872005 -0.000660556290087 0
-0.00754968838329 -0.000387401301879 0
-0.00779787920817 -0.000175840446025 0
-0.00802796112196 -2.96438392172e-05 0
-0.00823384409227 7.02920738187e-05 0
-0.00842411758519 0.000120562793769 0
-0.0085888288916 0.000133598028333 0
-0.00874255768621 0.000106323132422 0
-0.00887533044341 5.00772439085e-05 0
-0.00899652319353 -3.69465906772e-05 0
-0.00910406741379 -0.000151728009543 0
-0.00919215337885 -0.000284519320336 0
-0.00927034910546 -0.000437857317204 0
-0.00933306504515 -0.000602140830274 0
-0.00938432934007 -0.000780965014516 0
-0.00942159161703 -0.000964032237318 0
-0.00944746217532 -0.00115207088457 0
-0.00946289731703 -0.00133955118213 0
-0.00946962547256 -0.00152293295488 0
-0.0094706041826 -0.00170077222379 0
-0.00929730093963 -0.00187235234497 0
-0.00911297343226 -0.00187508779272 0
-0.00891793774385 -0.00188710578349 0
-0.00870639944291 -0.00191501059944 0
-0.00846384428476 -0.00197521911905 0
-0.00815643159372 -0.00206769020611 0
-0.00777261189046 -0.0021902943568 0
-0.00722732090255 -0.00234322292901 0
-0.00647329197763 -0.00247850622627 0
-0.00542693635668 -0.00253480443033 0
-0.00397135688218 -0.00237151599926 0
-0.00219596840162 -0.0017567216921 0
-0.00801050989188 -0.000151378087768 0
0.0133507191104 -0.00263044262678 0
-0.0125037130599 -0.00303210296506 0
-0.0199653765554 -0.0211046848492 0
-0.016976797041 -0.0552485652692 0
0.000918788640046 -0.0699378959133 0
0.0192320431121 -0.0534954610561 0
0.0205916127989 -0.0187025175848 0
-0.00848929664075 -0.000662813840724 0
0.011952452341 -0.00158087220865 0
0.0149305137414 -0.00731604632591 0
0.0217357245534 -0.0476398873629 0
-0.00969212374411 -0.000261948708925 0
-0.0143147739438 -0.0098800231257 0
0.011402378234 -0.0915003360982 0
-0.0206996744396 -0.0501774981555 0
-0.00904469899854 -0.0932798451167 0
-0.00878531786048 0.000142595653666 0
0.0122958631829 -0.00259915767688 0
0.0148560311419 -0.0166447942986 0
-0.00984379867616 -0.00204222174118 0
0.0183152603259 -0.0790277740851 0
-0.0141712690483 -0.0222820716822 0
-0.000983625504254 -0.115153346246 0
-0.0166125332371 -0.0843619510417 0
0.015163957354 -0.032282828004 0
-0.00925621128919 -0.00550298645586 0
0.0137022856204 -0.104822104338 0
-0.0151263468538 -0.0428456120373 0
0.00618667758551 -0.119600991366 0
-0.0120240667381 -0.107157180232 0
0.015640278717 -0.00662011420527 0
0.0112591477102 -0.00514335699235 0
-0.00889913582627 -0.00123041038548 0
0.0113609473209 -0.00154048366697 0
0.0116402426508 -0.00170192917288 0
-0.00701279317789 -0.000779210652437 0
-0.00875729663758 0.000152511093558 0
0.011188463522 -0.00180103041951 0
-0.00880994844798 -0.000153191635684 0
0.0208584725789 -0.0305521097435 0
0.0105456655466 -0.0557556493147 0
-0.0198138616876 -0.0323654492482 0
-0.00825807844337 -0.0562906918851 0
-0.0159346583683 -0.00853670994127 0
0.0170584621081 -0.0627248021788 0
-0.00963757448181 -0.012030617555 0
-0.0159728403688 -0.0694875214784 0
-0.00670624004493 -0.120253739187 0
0.0110204433903 -0.0103429906975 0
-0.00943361122573 -0.000776687758058 0
-0.00861807016162 -0.000662216103926 0
0.0100727654658 -0.119781253268 0
-0.00893844963913 -0.000659542080176 0
0.0111410613012 -0.00156672887696 0
0.0105525051011 -0.00307303905148 0
-0.0087278859337 0.000218428353243 0
0.0168390354602 -0.0782749694154 0
-0.0201048564062 -0.0329978110117 0
0.00473593849523 -0.0958282194695 0
-0.0147164115542 -0.0813963023241 0
-0.0124963503088 -0.00467027270225 0
-0.00477038855609 -0.000410714340381 0
0.00844055082619 -0.00143972230998 0
-0.00978253250679 -0.0246212462325 0
0.0126910716988 -0.0208440829442 0
-0.00988988890175 -0.00302221808557 0
-0.013356947272 -0.00934534419943 0
0.0150037815112 -0.0116681199777 0
-0.000666082222286 -0.0295176221168 0
0.00986792283512 -0.0199327975665 0
-0.00793834906501 -0.00272740037169 0
0.0145795946989 -0.0969751192768 0
-0.00915080926136 -0.0275962793009 0
0.00121532753924 -0.131520621396 0
-0.0138610815883 -0.0913196726508 0
0.0126899094538 -0.00187329165093 0
-0.00825508386645 -0.000213493974385 0
0.0204098021416 -0.0257329600804 0
0.0181359376623 -0.0129920169107 0
0.0123168535218 -0.0436257624051 0
-0.0122527895473 -0.109543594794 0
-0.00838198851414 -0.0013852007435 0
0.0118644533163 -0.00169216306091 0
-0.00905574752698 4.93076002846e-07 0
-0.0068080628446 -0.000455873138812 0
-0.00628685976267 -0.00109879219633 0
0.0140998265723 -0.0806763783756 0
0.0142571595209 -0.00394820426798 0
-0.00666050997428 -0.0169184066875 0
-0.0088879864166 -0.123804768466 0
-0.00729281561493 -0.00851155525804 0
-0.0128656724611 -0.0594622631037 0
-0.00354584670202 -0.133948769117 0
-0.0109989101092 -0.00156883202176 0
0.0211378966271 -0.0590015458549 0
-0.0177406322259 -0.0178738491657 0
-0.0193959370897 -0.0630277539048 0
-0.00281506130257 -0.0909719615269 0
0.0114752438136 -0.00296073593366 0
0.0092522056105 -0.00751986394361 0
-0.00828589869694 -0.000162487009115 0
0.00487256096621 -0.0251520914021 0
-0.0129926914001 -0.013434231407 0
0.00734015946127 -0.132798068862 0
0.0113994775192 -0.120728450232 0
0.0102425370664 -0.00231083320866 0
-0.00882954533309 6.63313021141e-05 0
0.00902159741284 -0.00168500744272 0
-0.00506193781442 -0.000961447176441 0
0.00821506923626 -0.027253096805 0
0.00770849257969 -0.014650063772 0
-0.00682940880432 -0.00460449219952 0
-0.00757732258871 -0.00155544349317 0
-0.00778366484119 -0.0385343986118 0
0.009410641505 -0.0044434966231 0
0.022348663941 -0.0313960963343 0
0.0119456417506 -0.00190673802381 0
-0.00767443949526 -0.00137783086382 0
0.0112805348069 -0.00548711358748 0
-0.0084931005737 0.000189603147872 0
-0.0106214736284 -0.120497428198 0
0.0127099979489 -0.11213055033 0
0.00446781350376 -0.13469854092 0
0.018349197239 -0.046347183685 0
0.0115569919368 -0.060558108157 0
-0.0119370364281 -0.0827508701844 0
0.0107253631255 -0.00171731022025 0
-0.00899102529906 -0.000326256144987 0
-0.015920386406 -0.0358736521212 0
0.0148705708117 -0.0408137622109 0
-0.00913932691088 -0.00149905124073 0
0.0111557532429 -0.00148511760841 0
0.0136811180123 -0.0718298399654 0
-0.0214713758156 -0.0374355329634 0
-0.0114310178136 -0.0726574181235 0
-0.015018744217 -0.00730935587123 0
0.0147053808673 -0.0112486606572 0
-0.00979345627926 -0.000856069996725 0
0.0159657631128 -0.00627664143674 0
0.0203344835171 -0.0631074275461 0
-0.0140673172589 -0.0152137081469 0
-0.00492656301857 -0.10657876622 0
-0.0187510468363 -0.0692986662993 0
0.0163638872978 -0.019577393942 0
-0.00658378681868 -0.0349339233143 0
-0.012977471489 -0.00634464549317 0
0.00856274825119 -0.0787895410518 0
-0.0091496340014 -0.00105261465161 0
0.0110468219976 -0.00154556839403 0
0.0121227560542 -0.00176153844993 0
-0.00858715372746 -0.000202790868879 0
-0.00902731100854 0.000176716717317 0
0.0174828976116 -0.0112765935048 0
0.0043492585459 -0.0499748301987 0
-0.00583598584394 -0.0120983134774 0
-0.00630829130779 -0.133418180544 0
-0.0188471145246 -0.0205375682979 0
0.0130914594569 -0.00426555026062 0
-0.0105602963694 -0.00193108981665 0
0.0126807937657 -0.00757611092979 0
0.0122270013462 -0.00164372375143 0
-0.00798460728455 -0.000714847663745 0
-0.00908856397287 -0.000176028481739 0
0.0077021220376 -0.010469046759 0
-0.0101450024004 -0.000654595773096 0
-0.00782117228275 -0.000680964448513 0
0.0222985430997 -0.0416099647949 0
0.0121362165447 -0.103392235807 0
-0.0112862273751 -0.008598570239 0
-0.0183109598628 -0.0539579138223 0
-0.00972539956019 -0.106700496809 0
-0.010470155904 -0.0159418938117 0
-0.00663788978134 -0.000400269000112 0
0.0114845580637 -0.00178150707394 0
0.00824802371842 -0.0194471636415 0
0.0115741224354 -0.00154814342982 0
-0.00872256571478 -0.000911407601337 0
0.014321398757 -0.0040251418602 0
-0.0124659579966 -0.0459321920959 0
0.0186626794043 -0.0352782597991 0
-0.0133558736756 -0.00467072770731 0
0.0196981115519 -0.0198611042737 0
-0.0175784699499 -0.0132775776859 0
-0.00233725297791 -0.0525144491531 0
-0.0198828475991 -0.0470095090869 0
-0.0142405308476 -0.0971777769992 0
0.0147053623098 -0.02299767029 0
0.0113219842334 -0.00224821239682 0
-0.00877800008129 8.50435262499e-05 0
0.0211363977248 -0.0357015682003 0
0.0115401483399 -0.00160281326866 0
-0.00873390486414 -0.000448905957667 0
-0.00969892704404 -0.00363907861958 0
0.0161990772828 -0.0923108903502 0
-0.014849474637 -0.0316085892342 0
0.00275458089911 -0.11936138568 0
0.0110077766227 -0.0021295873004 0
-0.00656251623917 -0.00144014445968 0
-0.0118795638126 -0.104833484103 0
-0.00867798823284 -0.00154971571562 0
0.0115951966992 -0.00158793514335 0
0.0127745547106 -0.0941141310534 0
-0.00507736735046 -0.0220527173612 0
-0.00101461413915 -0.139480457343 0
-0.00864609970822 3.84281712793e-05 0
-0.00882516328941 -0.000267067480547 0
0.00772747719569 -0.102953537835 0
0.0131950538864 -0.00255920158912 0
0.00948981717739 -0.128967328499 0
0.0181735894413 -0.0109613375196 0
-0.00661003309867 -0.074129094592 0
-0.0171432608438 -0.0118011276125 0
0.0161923146627 -0.0848024323514 0
-0.0102351666767 -0.0212821623862 0
-0.00140354943934 -0.126393631382 0
0.00732093167393 -0.0349976347316 0
-0.0210204234974 -0.048484626654 0
0.00822760533289 -0.00275183057546 0
0.00968447015224 -0.00315907289291 0
-0.00867776557872 0.000193063829627 0
-0.00619607056424 -0.00624218793923 0
-0.00799007311772 -0.048304932033 0
0.0117101652977 -0.0717552570465 0
-0.0106944153212 -0.0733152803653 0
0.0085932020662 -0.00562371933386 0
0.0108910039595 -0.00159493011691 0
-0.00909674362675 -0.000666068685055 0
-0.00829048158979 7.48379773678e-05 0
0.0183857189599 -0.0177792053855 0
0.0103498686511 -0.00199161659169 0
-0.00893807829748 -9.68895363065e-05 0
-0.0113491241523 -0.00261264704712 0
0.0193016161636 -0.071390358776 0
-0.0183505274566 -0.0243182238849 0
0.000314101964617 -0.0962548982125 0
-0.0173744884311 -0.0753733365213 0
0.00692049628824 -0.00167894770396 0
-0.00340593117102 -0.000392288352007 0
0.0122522566855 -0.0143629755192 0
-0.0142158120381 -0.0970400917533 0
-0.00893188443189 -0.00146388509279 0
0.0089832678386 -0.11282138194 0
-0.0192582446649 -0.041783760574 0
-0.0125095753155 -0.0946967008785 0
-0.0119072768928 -0.00611850258995 0
-0.00260379205385 -0.000434353423393 0
0.00496257965454 -0.00095362084839 0
-0.00412756368039 -0.000596875991112 0
0.0116623065304 -0.00381331943122 0
-0.00884220650196 0.000224714124668 0
0.0209709404331 -0.046373920579 0
0.0147511999834 -0.0914950984842 0
-0.0166494549952 -0.0785190946312 0
-0.0109793991878 -0.00157623181099 0
0.017657888898 -0.071690422019 0
-0.0109038228175 -0.0162769717211 0
-0.00408036427696 -0.120435513182 0
0.0120672458827 -0.00166169878681 0
-0.00819431479644 -0.000990552355931 0
0.00642019762291 -0.0200524473414 0
0.0157026260305 -0.0551337550965 0
0.0123781504538 -0.00174730809091 0
-0.00764187410147 -0.000420210267841 0
-0.00691512804576 -0.00280594846585 0
0.0129451486157 -0.101297370174 0
-0.00532187607695 -0.026671609146 0
-0.0117111836314 -0.0980913702253 0
0.000885954469989 -0.139463880232 0
0.00589247081836 -0.0646521397477 0
0.0185479721612 -0.0275725393985 0
0.0119305708584 -0.00194615549868 0
-0.00796001134467 -0.00166730818412 0
0.0147606990833 -0.052418917361 0
0.00843173711556 -0.00675653613891 0
0.016899542428 -0.00897082757511 0
-0.00208253745051 -0.0144590627388 0
0.0093094536546 -0.0380931596303 0
-0.00749895714926 -0.00396969338198 0
-0.0168283557723 -0.024198646528 0
-0.00666897388936 -0.000321535991799 0
-0.0206495952167 -0.0268843463118 0
-0.00954719840677 -0.000153038849538 0
0.0202423254868 -0.0522665199278 0
-0.00563853705091 -0.00141940494176 0
-0.00282634191918 -0.00105028200805 0
0.00526963421337 -0.00170241837288 0
0.0110819348985 -0.00152261122949 0
-0.0091949992541 -0.0012924146215 0
0.012997861728 -0.00561209328551 0
0.00150259722726 -0.0182350634632 0
-0.00978650425153 -0.00761480848015 0
-0.0088968457265 -0.00162043015462 0
0.0113721394666 -0.00149854050375 0
-0.00718620049604 -0.00262440531556 0
0.0118758973573 -0.00252061314555 0
-0.00800802929394 -0.000857585682977 0
-0.00584070653169 -0.0169286658732 0
0.00987574686562 -0.0122599037891 0
-0.0134840373299 -0.00447142547254 0
-0.00913506063354 7.94616589965e-05 0
0.0178785657583 -0.0621511104077 0
-0.0150188280688 -0.0665958752123 0
0.0069628953114 -0.0453512917186 0
-0.0109603917957 -0.116035003511 0
0.0119879372082 -0.110896003073 0
0.012299295813 -0.00165136958316 0
-0.00835323062184 -0.000413794202423 0
0.00889699977472 -0.00514692086628 0
0.0046641353388 -0.0782757329661 0
-0.00930625778652 -0.129278397438 0
-0.0209022312565 -0.0272826829186 0
-0.0209134338508 -0.0408493412545 0
-0.0123646934459 -0.0879033318118 0
-0.0131637540863 -0.00655427704928 0
0.01446782206 -0.0837232899212 0
0.0113881072145 -0.121128794852 0
0.00559815765089 -0.140653847597 0
0.0125852416861 -0.00437897629257 0
0.01127542844 -0.00153684571281 0
-0.00891988924043 -0.00093998423445 0
-0.00515421265393 -0.00979246216254 0
-0.0045008065062 -0.014899947046 0
-0.00763679636657 -0.133047686755 0
-0.00459831583225 -0.139268279241 0
-0.00615572898644 -0.000708577260198 0
0.0106827609911 -0.00162312307983 0
0.0202082544498 -0.0197751975994 0
0.0115757170896 -0.00157213968836 0
-0.00871370806928 -0.00122751524867 0
0.0143598944307 -0.00492563251084 0
0.0101834581795 -0.0861183409678 0
-0.00576453459625 -0.0630193972979 0
-0.018701196281 -0.0163536758371 0
-0.00290810791209 -0.0757927561848 0
0.00745886188173 -0.00862121084328 0
0.00525231373424 -0.104460934388 0
-0.00786391686289 -0.000372292342394 0
-0.00923543118932 -0.00164074284733 0
0.011100874892 -0.00143652902354 0
-0.0186099875316 -0.0627933106846 0
-0.00734575615102 -0.108656225058 0
-0.0122870049813 -0.0116237522353 0
-0.00864605579889 -1.99755864964e-06 0
0.0148248122576 -0.00432746968495 0
0.0123504894817 -0.00209222221923 0
0.0111611821224 -0.00161820257051 0
-0.00887348187296 -0.00043136704494 0
0.0108290561393 -0.00648022600238 0
0.0062396849614 -0.0123761849419 0
-0.00733998510142 -0.00110219200938 0
0.0215101043748 -0.0250430944839 0
0.0217322786971 -0.0542536355878 0
-0.0159350155283 -0.0134067803135 0
-0.0203918848126 -0.0580813971662 0
-0.00613146111562 -0.0925867431692 0
-0.0102549241881 -0.000785691637652 0
-0.015532156981 -0.0860666922913 0
-0.012087677707 -0.00268278624689 0
0.0175372749638 -0.0825327834455 0
-0.0111469925223 -0.00360881500068 0
-0.0180581872574 -0.0306204479786 0
0.0116836224051 -0.0019317653838 0
0.0197151317854 -0.0614663572042 0
-0.0087307246683 -5.90653709775e-05 0
-0.0196226900422 -0.0222728224182 0
-0.0177710760354 -0.0646185152164 0
0.000443651815285 -0.0837533079305 0
0.0159625025014 -0.0401325223921 0
0.018705030192 -0.0352298966436 0
-0.00907467789145 -0.00720154761195 0
-0.0153741140187 -0.0516109960486 0
-0.0102012119995 -0.113115360213 0
0.0100866041956 -0.129840486714 0
0.00816715831979 -0.13628198325 0
0.0201306728712 -0.0685138929193 0
-0.0161497160051 -0.0196504098872 0
-0.0022443597035 -0.10401398629 0
-0.018284366692 -0.0742148291499 0
0.00952574062842 -0.00277689018698 0
-0.00876698674877 0.000128037267816 0
-0.00865081936402 3.3789034053e-06 0
0.0213492042624 -0.0230874389416 0
0.0145107356336 -0.10148187397 0
0.00336025210213 -0.127885841176 0
0.0163981494454 -0.0144966738082 0
0.00892511936515 -0.00376650216833 0
-0.00447561129145 -0.0184072376822 0
-0.00273819185534 -0.140317525302 0
0.0131577158866 -0.00224343262185 0
-0.00825249202574 -0.0001007285002 0
-0.012837946478 -0.0591281729231 0
-0.0084586872794 -0.00163659018746 0
0.0117754143285 -0.00168701884564 0
-0.0093330100674 7.63431637584e-06 0
-0.0144835206545 -0.00580854320022 0
-0.00854622675527 0.000184491601758 0
-0.0104429418197 -0.00162217891112 0
0.0115057912705 -0.00270506556994 0
-0.00878831971166 0.000189453837254 0
0.0168454318089 -0.0227228221592 0
-0.00251308286894 -0.000297952638992 0
0.00486706642787 -0.000915254426163 0
-0.0088817903284 0.000148882725139 0
-0.00714305696462 -0.0135666965419 0