# vtk DataFile Version 2.0
Generated with Solid Solver
ASCII
DATASET UNSTRUCTURED_GRID
POINTS 1163 float 
0.0 3.5 0.0
2.2 3.5 0.0
2.2 4.0 0.0
0.0 4.0 0.0
0.0687499999999 3.5 0.0
0.1375 3.5 0.0
0.20625 3.5 0.0
0.275 3.5 0.0
0.343749999999 3.5 0.0
0.412499999999 3.5 0.0
0.481249999999 3.5 0.0
0.549999999999 3.5 0.0
0.618749999998 3.5 0.0
0.687499999998 3.5 0.0
0.756249999998 3.5 0.0
0.824999999998 3.5 0.0
0.893749999998 3.5 0.0
0.962499999997 3.5 0.0
1.03125 3.5 0.0
1.1 3.5 0.0
1.16875 3.5 0.0
1.2375 3.5 0.0
1.30625 3.5 0.0
1.375 3.5 0.0
1.44375 3.5 0.0
1.5125 3.5 0.0
1.58125 3.5 0.0
1.65 3.5 0.0
1.71875 3.5 0.0
1.7875 3.5 0.0
1.85625 3.5 0.0
1.925 3.5 0.0
1.99375 3.5 0.0
2.0625 3.5 0.0
2.13125 3.5 0.0
2.2 3.56430812579 0.0
2.2 3.6227083524 0.0
2.2 3.67574343203 0.0
2.2 3.72390623714 0.0
2.2 3.76764438299 0.0
2.2 3.80736436348 0.0
2.2 3.84343531161 0.0
2.2 3.87619247056 0.0
2.2 3.90594026646 0.0
2.2 3.93295517223 0.0
2.2 3.9574882542 0.0
2.2 3.97976750927 0.0
2.18000003888 4.0 0.0
2.15999995974 4.0 0.0
2.13999995594 4.0 0.0
2.12000003893 4.0 0.0
2.0999999813 4.0 0.0
2.07999993507 4.0 0.0
2.06000001965 4.0 0.0
2.04000002354 4.0 0.0
2.01999993997 4.0 0.0
1.99999999426 4.0 0.0
1.98000004623 4.0 0.0
1.95999996625 4.0 0.0
1.93999996787 4.0 0.0
1.92000005069 4.0 0.0
1.90000001292 4.0 0.0
1.87999994967 4.0 0.0
1.86000003245 4.0 0.0
1.84000003166 4.0 0.0
1.81999995194 4.0 0.0
1.80000002065 4.0 0.0
1.78000005962 4.0 0.0
1.75999997703 4.0 0.0
1.73999998149 4.0 0.0
1.72000006236 4.0 0.0
1.70000000651 4.0 0.0
1.67999995967 4.0 0.0
1.66000004242 4.0 0.0
1.64000004304 4.0 0.0
1.61999996152 4.0 0.0
1.6000000096 4.0 0.0
1.58000006667 4.0 0.0
1.55999998704 4.0 0.0
1.53999998381 4.0 0.0
1.52000006764 4.0 0.0
1.5000000299 4.0 0.0
1.47999996242 4.0 0.0
1.46000004337 4.0 0.0
1.4400000454 4.0 0.0
1.41999996386 4.0 0.0
1.40000002834 4.0 0.0
1.38000006734 4.0 0.0
1.35999998576 4.0 0.0
1.33999998537 4.0 0.0
1.32000006658 4.0 0.0
1.30000001585 4.0 0.0
1.27999996279 4.0 0.0
1.26000004759 4.0 0.0
1.24000004493 4.0 0.0
1.2199999616 4.0 0.0
1.20000000906 4.0 0.0
1.18000006792 4.0 0.0
1.15999998616 4.0 0.0
1.13999999119 4.0 0.0
1.12000007157 4.0 0.0
1.1 4.0 0.0
1.07999992843 4.0 0.0
1.06000000881 4.0 0.0
1.04000001384 4.0 0.0
1.01999993209 4.0 0.0
0.999999990948 4.0 0.0
0.98000003841 4.0 0.0
0.959999955072 4.0 0.0
0.939999952416 4.0 0.0
0.920000037214 4.0 0.0
0.899999984154 4.0 0.0
0.879999933427 4.0 0.0
0.860000014636 4.0 0.0
0.840000014246 4.0 0.0
0.819999932662 4.0 0.0
0.79999997166 4.0 0.0
0.780000036145 4.0 0.0
0.759999954604 4.0 0.0
0.73999995663 4.0 0.0
0.72000003758 4.0 0.0
0.699999970103 4.0 0.0
0.679999932361 4.0 0.0
0.660000016189 4.0 0.0
0.640000012962 4.0 0.0
0.61999993333 4.0 0.0
0.599999990406 4.0 0.0
0.58000003848 4.0 0.0
0.559999956964 4.0 0.0
0.539999957581 4.0 0.0
0.520000040329 4.0 0.0
0.499999993489 4.0 0.0
0.479999937647 4.0 0.0
0.460000018512 4.0 0.0
0.440000022972 4.0 0.0
0.419999940378 4.0 0.0
0.399999979352 4.0 0.0
0.380000048063 4.0 0.0
0.359999968347 4.0 0.0
0.339999967553 4.0 0.0
0.320000050328 4.0 0.0
0.299999987077 4.0 0.0
0.279999949312 4.0 0.0
0.260000032129 4.0 0.0
0.240000033752 4.0 0.0
0.219999953776 4.0 0.0
0.200000005737 4.0 0.0
0.180000060031 4.0 0.0
0.159999976465 4.0 0.0
0.139999980354 4.0 0.0
0.120000064926 4.0 0.0
0.100000018697 4.0 0.0
0.0799999610675 4.0 0.0
0.0600000440571 4.0 0.0
0.0400000402596 4.0 0.0
0.0199999611169 4.0 0.0
0.0 3.97976750927 0.0
0.0 3.9574882542 0.0
0.0 3.93295517223 0.0
0.0 3.90594026646 0.0
0.0 3.87619247056 0.0
0.0 3.84343531161 0.0
0.0 3.80736436348 0.0
0.0 3.76764438299 0.0
0.0 3.72390623714 0.0
0.0 3.67574343203 0.0
0.0 3.6227083524 0.0
0.0 3.56430812579 0.0
0.249757963562 3.75212589829 0.0
1.94999996706 3.74954522137 0.0
0.488710285893 3.75947702441 0.0
0.726520490699 3.7655965719 0.0
0.967283134849 3.7597072979 0.0
1.20619032017 3.75831098673 0.0
1.45842774915 3.76733088374 0.0
1.69012076678 3.7622332834 0.0
0.130754044069 3.86878249167 0.0
2.06924595593 3.86878249167 0.0
1.8299999918 3.84622455633 0.0
1.56816462369 3.85034872999 0.0
0.369913859351 3.84868157925 0.0
0.608733620231 3.84706187144 0.0
1.33069778866 3.84790908234 0.0
0.84323446252 3.84762979148 0.0
1.08873170817 3.84705870913 0.0
0.250539365135 3.87785524304 0.0
1.94967747948 3.87849609822 0.0
1.73218750075 3.8916046151 0.0
0.468661874066 3.89189322974 0.0
1.47574192429 3.89639134117 0.0
0.704258110321 3.8963912684 0.0
1.18331258449 3.8976320365 0.0
0.949999953744 3.89208018478 0.0
1.64795374468 3.91749779939 0.0
0.548928463645 3.91905583847 0.0
1.38619509199 3.91928594438 0.0
0.788926872841 3.91906062101 0.0
1.27071160784 3.91777932845 0.0
1.02999997296 3.91685174433 0.0
1.81733541416 3.69950870754 0.0
1.86999999106 3.91823503401 0.0
0.071252620538 3.93011431841 0.0
2.12874737946 3.93011431841 0.0
2.07400690796 3.74293885365 0.0
0.125993092043 3.74293885365 0.0
0.32995676804 3.92118147353 0.0
2.00999996712 3.92542383197 0.0
0.190000032884 3.92542383197 0.0
1.56698738743 3.72218882919 0.0
1.33000000474 3.72531695685 0.0
0.848014510843 3.71986098938 0.0
1.09024665585 3.72285801424 0.0
0.610276609989 3.72290563624 0.0
1.54999998543 3.92414142844 0.0
0.629999973146 3.92414137652 0.0
0.869999974031 3.92414141814 0.0
1.11000003579 3.92414141267 0.0
1.79030638642 3.92649353654 0.0
0.370434802927 3.72513294336 0.0
0.410903135411 3.92892991244 0.0
1.33000002597 3.93737911571 0.0
0.129927648482 3.94112154503 0.0
2.07007235152 3.94112154503 0.0
1.93000000928 3.93875927586 0.0
0.26999999072 3.93875927586 0.0
1.40966706061 3.83880068991 0.0
0.770332962441 3.83880062149 0.0
1.24904900022 3.84293377683 0.0
1.01033287484 3.83880060723 0.0
0.530342681434 3.83880307444 0.0
0.189895273961 3.63486992823 0.0
2.00989835291 3.62845703161 0.0
0.998888153878 3.61665036233 0.0
1.47894673873 3.61675180774 0.0
0.51733910646 3.62937665489 0.0
0.705112628302 3.618743723 0.0
1.66672137035 3.63168728155 0.0
1.18508242495 3.61871739348 0.0
1.71000003443 3.94408608591 0.0
0.489999965568 3.94463856597 0.0
1.44983363802 3.94422347836 0.0
0.729999997105 3.94465012565 0.0
1.21016639734 3.94422345842 0.0
0.928621800545 3.94440037102 0.0
2.00626203014 3.81543543551 0.0
0.193627962274 3.81528928332 0.0
1.66628164144 3.83559795895 0.0
1.75661718781 3.81065958113 0.0
1.61143779865 3.94859227761 0.0
0.991673865748 3.95161238438 0.0
0.0604617941233 3.86281264864 0.0
2.13953820588 3.86281264865 0.0
0.300965570716 3.8114148258 0.0
0.2970894797 3.66361086085 0.0
0.398842167194 3.60449226805 0.0
1.51000004877 3.95218393067 0.0
1.90135619383 3.81213273629 0.0
0.669405272842 3.95495208979 0.0
1.07142780558 3.94866325309 0.0
0.592085094025 3.94901139323 0.0
0.831051660929 3.94633985879 0.0
1.14940528892 3.9549521224 0.0
0.44409344258 3.82719938178 0.0
1.49646539728 3.82376850413 0.0
0.683434082651 3.82631713605 0.0
0.92337834777 3.8234861632 0.0
1.16343437877 3.82631615351 0.0
1.90749084149 3.65350700271 0.0
1.8278758005 3.95083911942 0.0
0.37243073327 3.95235211027 0.0
1.29345662549 3.60569899261 0.0
0.813407949226 3.60572380122 0.0
1.29317153636 3.96216077293 0.0
1.367704599 3.96055764734 0.0
1.97071235041 3.96038324024 0.0
0.22928764959 3.96038324024 0.0
2.10610581798 3.66047411138 0.0
0.0938941820177 3.66047411138 0.0
1.67000000105 3.95862953468 0.0
1.74869816704 3.96079301687 0.0
0.531976761939 3.96138655466 0.0
0.451361042387 3.96112774725 0.0
0.771976832233 3.96138887156 0.0
1.88843481911 3.95881554986 0.0
1.61277513709 3.78538823015 0.0
2.13311214501 3.79435403671 0.0
0.0668878549946 3.79435403671 0.0
1.76678797151 3.60286552601 0.0
0.311702446283 3.9611157379 0.0
1.02877762737 3.96159282031 0.0
1.40830122607 3.96143175203 0.0
1.25214210333 3.957355862 0.0
1.59476493393 3.9048774062 0.0
1.56950979124 3.96148017208 0.0
0.890017020275 3.96125792969 0.0
2.03089110475 3.96040268709 0.0
0.169108895255 3.96040268709 0.0
0.939722125942 3.68539157065 0.0
1.41686981874 3.69192854313 0.0
0.0426348006718 3.96101756902 0.0
2.15736519933 3.96101756902 0.0
1.36077308019 3.79177204211 0.0
0.817982383499 3.78962669257 0.0
1.05834720932 3.78780184893 0.0
0.578349529346 3.78781530011 0.0
1.77992711518 3.87652731382 0.0
0.417982153133 3.87594990465 0.0
1.84363633012 3.77741329286 0.0
1.52244994479 3.87704541475 0.0
0.657426528912 3.87734838249 0.0
1.13742651778 3.87734834025 0.0
0.898116026439 3.8800466833 0.0
1.56984259435 3.64465823131 0.0
1.08983016076 3.6446495206 0.0
0.609942357805 3.64483976081 0.0
1.29451769374 3.79627773068 0.0
0.0893439668432 3.96574839433 0.0
2.11065603316 3.96574839433 0.0
2.01422398896 3.86980625824 0.0
0.185776011038 3.86980625824 0.0
0.305957237756 3.87340573745 0.0
1.72977480551 3.68665973332 0.0
1.25418096296 3.69351129461 0.0
0.629999973146 3.96272981435 0.0
1.11000003579 3.96272983221 0.0
0.772975283819 3.69297597031 0.0
1.89089074715 3.86951346173 0.0
0.445448577516 3.69456159386 0.0
1.82621986864 3.89678318705 0.0
2.07135424223 3.81165410377 0.0
0.128645757768 3.81165410377 0.0
0.373320289473 3.89968791662 0.0
1.79000004014 3.96541718891 0.0
0.383302070088 3.78976392323 0.0
0.409457623385 3.96502881851 0.0
1.55531527123 3.78787141386 0.0
1.34861332978 3.89383287415 0.0
0.593245985735 3.89483466551 0.0
0.833245353375 3.89479604398 0.0
1.0732444554 3.8948349405 0.0
0.911896623122 3.59194725763 0.0
0.187580554011 3.70699710313 0.0
2.01241944599 3.70699710313 0.0
1.39201907571 3.59233063354 0.0
2.09635520798 3.90516200201 0.0
0.103644792024 3.90516200201 0.0
1.89086147526 3.72621461413 0.0
1.02102684616 3.70044819701 0.0
1.49813234221 3.70194667869 0.0
0.53965669049 3.70593418829 0.0
1.63719578665 3.69772473547 0.0
0.685447658936 3.70127585046 0.0
1.16541741817 3.70128744764 0.0
0.901649266036 3.76287226775 0.0
0.992351690321 3.90662993531 0.0
1.69131894868 3.90657323657 0.0
1.9699561555 3.91599371502 0.0
0.230043844497 3.91599371502 0.0
1.61980840676 3.85005402918 0.0
2.04685187594 3.90639759008 0.0
0.153148124058 3.90639759008 0.0
0.512139828486 3.90538520837 0.0
1.43057458921 3.90702644399 0.0
0.749149996349 3.90689574876 0.0
[...]
POINT_DATA 1163
VECTORS Displacement float
0.0 0.0 0
0.0 0.0 0
0.00946502635613 -0.00186951264865 0
-0.0109992341037 -0.00133122642146 0
0.0 0.0 0
0.0 0.0 0
0.0 0.0 0
0.0 0.0 0
0.0 0.0 0
0.0 0.0 0
0.0 0.0 0
0.0 0.0 0
0.0 0.0 0
0.0 0.0 0
0.0 0.0 0
0.0 0.0 0
0.0 0.0 0
0.0 0.0 0
0.0 0.0 0
0.0 0.0 0
0.0 0.0 0
0.0 0.0 0
0.0 0.0 0
0.0 0.0 0
0.0 0.0 0
0.0 0.0 0
0.0 0.0 0
0.0 0.0 0
0.0 0.0 0
0.0 0.0 0
0.0 0.0 0
0.0 0.0 0
0.0 0.0 0
0.0 0.0 0
0.0 0.0 0
0.00219631850577 -0.00175432040821 0
0.00396872802416 -0.002367032993 0
0.00542206486653 -0.0025301343016 0
0.00646732711422 -0.00247379681947 0
0.00722069207688 -0.00233856933934 0
0.00776551506637 -0.00218600947107 0
0.00814936939948 -0.00206379375119 0
0.00845702325717 -0.00197163884645 0
0.00869995295488 -0.00191163404929 0
0.00891187291607 -0.00188382011797 0
0.00910725365522 -0.00187184129355 0
0.00929187636204 -0.00186911676299 0
0.0094654322189 -0.00169728945865 0
0.00946445893643 -0.00151921972464 0
0.00945775366806 -0.00133561775743 0
0.00944236634403 -0.00114791976606 0
0.0094165689982 -0.000959648839073 0
0.0093793985855 -0.000776318557498 0
0.0093282409439 -0.000597188924204 0
0.00926561862676 -0.000432551561609 0
0.00918747951976 -0.000278805315487 0
0.00909937979717 -0.0001456195233 0
0.00899174328342 -3.05544918736e-05 0
0.00887054902978 5.6627513309e-05 0
0.00873799141842 0.000113291820426 0
0.00858458816693 0.000141343592821 0
0.00842023862616 0.000129570051059 0
0.00822951407843 8.09234799933e-05 0
0.0080238700837 -1.81043429911e-05 0
0.00779377265458 -0.000162573176606 0
0.00754480976597 -0.000371724740268 0
0.0072579980438 -0.000645234549928 0
0.00695202683112 -0.000995326704073 0
0.0066334084561 -0.00143244493089 0
0.00626842129837 -0.00194750128147 0
0.00588035100791 -0.00258035950432 0
0.00544044348038 -0.00332658829721 0
0.00499326221514 -0.00421085139271 0
0.00448468169478 -0.00523761874776 0
0.00394579469894 -0.00644781357269 0
0.00336818729481 -0.00784131436196 0
0.00280153562251 -0.0094458327882 0
0.00219844207631 -0.0113194659505 0
0.00150738238863 -0.01344096521 0
0.000845398291369 -0.01587835391 0
0.000149195571224 -0.0186812421005 0
-0.000524342985302 -0.0218964558929 0
-0.00120608025784 -0.0255680044791 0
-0.00188448444484 -0.0297765151158 0
-0.00267736408171 -0.034761613375 0
-0.00333734949196 -0.0399301222553 0
-0.00171985931161 -0.0504401529437 0
0.000244678661863 -0.060005809213 0
0.00220270110815 -0.0690215157772 0
0.00390087522282 -0.0776943850868 0
0.00554753904766 -0.0857590705069 0
0.00683411647922 -0.0934528266615 0
0.00786405303522 -0.100697473504 0
0.00862576164991 -0.107504077631 0
0.00920694996787 -0.113837950321 0
0.00947331857255 -0.119788527666 0
0.00953378698088 -0.125246688264 0
0.00935487541701 -0.130239364771 0
0.00895196266093 -0.134744875515 0
0.00832609093714 -0.138761644588 0
0.00751079778887 -0.142270215545 0
0.00652081539547 -0.145256893866 0
0.0053724891967 -0.147718911521 0
0.004125672997 -0.149640407976 0
0.00275666000305 -0.151019108864 0
0.00125764667048 -0.151830591874 0
-0.000317642965784 -0.152050445618 0
-0.00194510322099 -0.151832032468 0
-0.00346163900987 -0.150993133773 0
-0.00486913862982 -0.149600239347 0
-0.00615566352023 -0.14765826716 0
-0.00730271025155 -0.145179008771 0
-0.00829414780452 -0.142172736812 0
-0.00916114806078 -0.138636652118 0
-0.00978204805777 -0.134602793445 0
-0.0102074213309 -0.130072343764 0
-0.0104083698942 -0.125052772865 0
-0.0103782105873 -0.119556056117 0
-0.0101072172834 -0.113615084448 0
-0.0096099553047 -0.107246499883 0
-0.00880542760281 -0.100417604554 0
-0.00780286010294 -0.0931364530063 0
-0.00653053709498 -0.085408517763 0
-0.00498370398015 -0.0772786501392 0
-0.00321479094636 -0.0685812078964 0
-0.00134605138731 -0.0595033280692 0
0.000764884949646 -0.0499779641741 0
0.00197740611575 -0.039179477596 0
0.00101645250994 -0.0344007934188 0
0.000315817774944 -0.0297000341869 0
-0.000451122633122 -0.0255165111021 0
-0.00118572105694 -0.0218918561055 0
-0.00202019537782 -0.0187519091865 0
-0.00277491818015 -0.0160548598495 0
-0.00353940180154 -0.0137176436055 0
-0.00423250190556 -0.0116752631876 0
-0.00494120891064 -0.00990699115924 0
-0.0056426865791 -0.00839551894306 0
-0.00626912476471 -0.00709201288951 0
-0.00686665086148 -0.00599645711826 0
-0.00742577487696 -0.00505748910969 0
-0.00795205234681 -0.00427963744486 0
-0.00841726185763 -0.00362714920428 0
-0.00886176234944 -0.00310286313667 0
-0.00924938436085 -0.00267605815517 0
-0.00960771329705 -0.00234490939989 0
-0.00992695074297 -0.00210117156346 0
-0.0101893150382 -0.00191328857741 0
-0.010421905697 -0.00178751942161 0
-0.0106074444311 -0.00169372285183 0
-0.0107575265744 -0.00164150425299 0
-0.0108652704071 -0.00159891472883 0
-0.0109385144378 -0.00156809486505 0
-0.0109810081239 -0.00153244008743 0
-0.0109987863309 -0.00148265498138 0
-0.0110005750399 -0.00141538243563 0
-0.0110870871965 -0.00132990547552 0
-0.0112015247412 -0.00133635247558 0
-0.0113524500077 -0.001368662377 0
-0.0115338532664 -0.00144547292226 0
-0.0117150967828 -0.00161596772971 0
-0.0118173217704 -0.00188526990537 0
-0.011818997749 -0.00225762757282 0
-0.0115154074766 -0.00274490647694 0
-0.0107858256837 -0.00325236128496 0
-0.00943827294305 -0.00368588571244 0
-0.00715521858609 -0.00373502248234 0
-0.0040720637061 -0.00294761202561 0
-0.0133980648843 -0.00264332235727 0
0.00796098709053 -0.000149972871864 0
-0.019975561836 -0.0162260474134 0
-0.0197981240284 -0.0509784615057 0
-0.00313142155241 -0.0700105938179 0
0.0154793690119 -0.0581341970537 0
0.0203848124168 -0.0232133881349 0
0.0131134742133 -0.00375375044438 0
-0.0119691523392 -0.00158363002238 0
0.00848247058205 -0.00065858890704 0
0.00969404034368 -0.000265919463482 0
0.0148624381929 -0.0120958600626 0
-0.0148889645305 -0.0072899059797 0
-0.0217189538757 -0.0418320058883 0
0.0204096158659 -0.0563722168996 0
-0.0133196215303 -0.0883682359093 0
0.00722293627994 -0.0950826755851 0
-0.0123270353495 -0.00260630632397 0
0.00878030432682 0.000149906780886 0
0.00982961755574 -0.00199375517717 0
-0.0148802353641 -0.0167643746177 0
0.0149285541439 -0.0260217710211 0
-0.0188388047846 -0.0738667276095 0
0.0133108225552 -0.0992227041972 0
-0.00465386090881 -0.112152482613 0
0.00935177729322 -0.00567980437438 0
-0.0148117396517 -0.0315723249329 0
0.0158424167086 -0.0507047065234 0
-0.014854271399 -0.0997347455825 0
0.0158720246682 -0.0854224998468 0
0.00205302116385 -0.121429250659 0
0.00918336433736 -0.000974874731009 0
0.00878152939109 0.000161643488527 0
-0.0113790556121 -0.00154546502721 0
0.0088930475739 -0.00122639193801 0
0.00700619884589 -0.00077433213002 0
-0.0116509702205 -0.00170667078155 0
-0.0111243902045 -0.00514483336075 0
0.00880404098999 -0.000147700146491 0
-0.0112062038017 -0.00180175073076 0
0.0166292780368 -0.0100130620134 0
0.019695785408 -0.035849446046 0
-0.0118843218422 -0.0528899983181 0
0.00686794532653 -0.0572341036858 0
-0.0209604493495 -0.0277960714895 0
0.00991293561705 -0.0143216585018 0
-0.0168387444687 -0.0560900166449 0
-0.0103298151294 -0.115504092195 0
0.00813677162597 -0.118156218049 0
0.00866544422445 -0.000627164836968 0
-0.015970868568 -0.00646529555882 0
-0.0108497755877 -0.0104619717681 0
0.0146020916179 -0.0717362781994 0
-0.0111592076548 -0.00156999955627 0
0.00893263944565 -0.000654878970536 0
0.00872360488477 0.000225584774169 0
-0.010566877576 -0.0030704235182 0
0.0205237566113 -0.0371912664323 0
-0.017962120992 -0.0748781615315 0
0.0179976865539 -0.0726113814725 0
0.000522600439539 -0.0953896675877 0
-0.020149050017 -0.0253707658033 0
-0.0087316096181 -0.00149501931835 0
0.00458473505237 -0.000396898924907 0
-0.00029418531801 -0.0290261979803 0
0.0132875659668 -0.00996311535914 0
-0.0147921848491 -0.0106461963128 0
-0.013399275875 -0.0203197953047 0
0.0103355298024 -0.00340633798063 0
0.00931639471092 -0.0257295394508 0
0.00795515910802 -0.00270438960916 0
-0.00982739700353 -0.0199855336129 0
0.00988457452493 -0.0323495839604 0
-0.0148158629816 -0.0914467614553 0
0.0126654243637 -0.107082902104 0
-0.00596729114107 -0.128762724482 0
0.00824751519735 -0.000209341413271 0
-0.0127081441068 -0.00187121108758 0
0.0127178952236 -0.00479086275174 0
0.0111709420792 -0.00161494552178 0
0.00732678540387 -0.00822989067933 0
-0.00105358331504 -0.134175025893 0
-0.0118811550339 -0.00169750059951 0
0.00837493093377 -0.00138125344636 0
-0.0143403416146 -0.0040263638632 0
-0.01208312418 -0.00315779431803 0
-0.0108347922876 -0.00457671462419 0
0.00716401850591 -0.0200437250318 0
0.0090196916375 2.02194720592e-05 0
-0.0134682666222 -0.0741250696814 0
0.00513306616525 -0.130306148909 0
-0.0124294218777 -0.0449425361173 0
-0.0119443802806 -0.116138832884 0
0.00986746596802 -0.122486882794 0
-0.0177367140106 -0.013269479043 0
0.0185268380727 -0.0206241785202 0
-0.0216395110985 -0.0554023672186 0
-0.00709554036015 -0.0883330402928 0
0.0130567973574 -0.0814768501654 0
0.00642883724304 -0.000451099067719 0
0.00830477150554 -0.000143279848361 0
-0.00915991772844 -0.00755570964848 0
0.0118788468144 -0.0181937298446 0
-0.00908381755686 -0.0225413286713 0
0.0120577385355 -0.0884839609361 0
0.0105033127538 -0.0615856831735 0
0.00882431321637 7.30623291095e-05 0
-0.0102602857292 -0.00231051562996 0
0.00505654906223 -0.000959020940439 0
-0.00902977091134 -0.00168679840939 0
0.00699483720825 -0.0044692817743 0
0.0075820501757 -0.00153433502221 0
-0.0077640485889 -0.0277521302484 0
-0.00768380305693 -0.0146838688041 0
-0.0130906343312 -0.10717582579 0
0.00850329182837 0.000204768634442 0
0.0154093898649 -0.00788648769103 0
0.00766714729591 -0.00137356563267 0
-0.0119598012915 -0.00191247350916 0
0.00676123486583 -0.00142537872049 0
-0.0093181021094 -0.00446238499516 0
0.00187764575219 -0.137329870844 0
0.00881519740112 -0.0456452271145 0
0.0126995829368 -0.0998545702806 0
0.0108278084207 -0.00959423320505 0
0.00596408312442 -0.0121151445013 0
-0.00840525746801 -0.130465060188 0
0.00898571147317 -0.000320857417877 0
-0.0107436798849 -0.00171944037072 0
-0.00477020216511 -0.0474773158383 0
0.0188699376002 -0.021419771054 0
-0.0111746462749 -0.00149093584015 0
0.00913366140425 -0.00149531108439 0
0.0214329371428 -0.0414943551613 0
-0.0151615694013 -0.0689159297625 0
0.00469610309097 -0.077989428096 0
-0.022188897906 -0.0301773507334 0
0.00979103746948 -0.00088678105187 0
-0.0147021172687 -0.0110365214501 0
0.00968024144472 -0.000422643908109 0
0.0147317044324 -0.017941764415 0
-0.0205863792472 -0.0578713862796 0
0.0107426159435 -0.0998676681784 0
-0.00895819466021 -0.104523493109 0
0.0135028938532 -0.00717588958142 0
0.00531227701339 -0.0355035174307 0
-0.0165146441384 -0.0181358901472 0
0.0201062488228 -0.0541874534691 0
-0.0110657415118 -0.00155006085909 0
0.00914410454918 -0.001048393038 0
0.00858309651626 -0.000197031483576 0
-0.0121346893254 -0.0017662047577 0
-0.0129490969058 -0.00414824222029 0
0.0109399951392 -0.0024366859142 0
0.0160127516957 -0.038168718437 0
-0.0112317189799 -0.0604708118716 0
0.00754810366735 -0.131016509423 0
-0.0154740207524 -0.04027256715 0
0.00905088272603 0.000171019812646 0
-0.0172871285891 -0.00996611025873 0
0.0091256382662 -0.000170913436335 0
0.00797631787175 -0.000710767130834 0
-0.0122437883238 -0.0016468487161 0
-0.0125306773955 -0.00755498278619 0
0.00780546505019 -0.000680539420173 0
-0.0166470711501 -0.00791841792894 0
-0.00775248804847 -0.0104180780289 0
0.0173035159643 -0.0126457843379 0
0.018424372996 -0.0591484539146 0
-0.0188101561819 -0.0422443852176 0
-0.0132777378548 -0.1009828766 0
0.00568358341904 -0.111771399599 0
-0.00413660987606 -0.0218103551081 0
-0.0114877495234 -0.00178449384806 0
0.00663404399325 -0.000395024108817 0
0.0115900335799 -0.0115431938287 0
0.0087162022811 -0.000907109795982 0
-0.0115914877568 -0.0015521435486 0
0.00837073312445 -0.000336113688153 0
0.00131320282319 -0.0524273435476 0
0.0180171206102 -0.0146739689675 0
-0.0197014821824 -0.0183501668166 0
0.0138914001999 -0.00552398284238 0
-0.019066526596 -0.0333899546334 0
0.0116593736406 -0.0470895896959 0
-0.00864404859038 -0.0684592349749 0
-0.00108113999572 -0.118298595431 0
0.00960529846131 -0.00346680230862 0
0.00877255010133 9.27766311421e-05 0
-0.0113388075609 -0.00225053766418 0
0.0133520063034 -0.00765445327836 0
0.00872743218585 -0.000443953925403 0
-0.0115578100418 -0.00160560184658 0
-0.0149898096648 -0.0237035343965 0
0.0156511928485 -0.0367287446371 0
-0.0169390405773 -0.0875569256986 0
0.0149287190777 -0.0939413055232 0
0.00655689960799 -0.00143588288373 0
-0.0110166251433 -0.00213539343115 0
-0.0036889175659 -0.138571347912 0
-0.0116127302846 -0.00159385964268 0
0.00867143016443 -0.00154592667701 0
0.00517336046557 -0.0258784755552 0
-0.0125132491823 -0.0875289079881 0
0.0107874350175 -0.119750814726 0
-0.0132259397111 -0.00257492604196 0
-0.0148106745219 -0.00436018967222 0
0.0185746961096 -0.0711761048554 0
0.00863750722724 4.55209772565e-05 0
0.0108887334758 -0.0764555822096 0
0.0110533733385 -0.00164140553709 0
0.00955902198822 -0.0719626157125 0
-0.0222554752041 -0.0390833184581 0
0.0107759339749 -0.0249782312715 0
-0.0164029151734 -0.0789223536427 0
0.0119724309101 -0.109808855604 0
0.00615411588312 -0.00637002080327 0
-0.0112611962366 -0.0767324774186 0
0.00456489691268 -0.000625714687575 0
0.00867118727602 0.000199664977199 0
-0.00970238326828 -0.00315298242816 0
-0.00741943062392 -0.0344689034892 0
-0.0122173502784 -0.115190723637 0
0.00536629553062 -0.0154449556299 0
-0.00990883196316 -0.127518054494 0
0.00828937988504 8.85193564989e-05 0
0.00909133270745 -0.000661335473376 0
-0.0109097548705 -0.0015982644245 0
-0.00858249088235 -0.00563404232077 0
0.0114057069573 -0.00254941378596 0
0.00893298953298 -9.06909179738e-05 0
-0.0103680829513 -0.00199272104639 0
-0.018268252146 -0.0181027312873 0
0.0190340722203 -0.0279432973446 0
-0.0201129845373 -0.0672838706777 0
0.0152927363191 -0.0808297396898 0
-0.00369571444868 -0.0971315893646 0
0.00370119157716 -0.000415367451854 0
-0.00639342031015 -0.00153798841824 0
0.00894506858791 -0.00144763905892 0
-0.00335535590939 -0.125780700482 0
-0.0122064308117 -0.0143805398874 0
0.0171995446475 -0.0734064325031 0
-0.0159010126338 -0.0882101974639 0
0.00284041363 -0.105586420709 0
-0.0193805331536 -0.0320998492158 0
-0.00495269389323 -0.0009539987031 0
0.00260839497908 -0.000432884077852 0
-0.00749743219373 -0.00243831563444 0
0.00883043471662 0.000240195391491 0
-0.0117390247069 -0.00381986690517 0
0.0191159196665 -0.0173322682272 0
0.01958369097 -0.0467647370833 0
-0.00783073659653 -0.116032903894 0
-0.0181040884491 -0.0105966035724 0
0.0112201946673 -0.0187299693364 0
-0.0177851930021 -0.0663540655103 0
0.0105480611732 -0.111262272161 0
0.00818670482706 -0.000986486506694 0
-0.0120839916019 -0.00166574700701 0
0.00691567532354 -0.00278690815268 0
0.00873000450601 -0.0113887179955 0
0.00763258996815 -0.000416293812705 0
-0.0123948310835 -0.00174814192544 0
-0.00639541296383 -0.0200881571916 0
0.00567915874874 -0.0312474958516 0
-0.012909769031 -0.0952711644758 0
-0.00550995180029 -0.137577923734 0
0.0114727801953 -0.114129585907 0
0.0182308536888 -0.0477949571528 0
0.0113746614551 -0.00483292924275 0
0.00795276926837 -0.00166320475511 0
-0.0119457728256 -0.0019525657717 0
0.0204112939265 -0.0286809492844 0
0.0063308176277 -0.00259085691992 0
0.0103935393765 -0.000777900010451 0
0.00424035139791 -0.0137418324599 0
0.016705617172 -0.0245765309402 0
-0.00857281371601 -0.00892483067582 0
-0.00966476043573 -0.037964294813 0
-0.0117725483058 -0.00243419015102 0
-0.0164888447352 -0.0531583872074 0
-0.0152282188934 -0.00573205775907 0
0.0128826799287 -0.0123678645945 0
-0.00907911797906 -0.00488870798797 0
-0.00526701890135 -0.00170521558828 0
0.00282653775944 -0.00104825381464 0
0.0091894699683 -0.00128844860968 0
-0.0111009980251 -0.00152781578086 0
0.00914198755745 6.55796045281e-05 0
0.00789586769678 -0.0146945537984 0
-0.00842835161807 -0.0142852132287 0
-0.0113903095899 -0.00150471077875 0
0.00889071834803 -0.00161677788697 0
-0.010089138305 -0.00756863855081 0
0.00672579997919 -0.000328568493993 0
-0.0138628382282 -0.00516248131998 0
0.00149500759099 -0.0186431299993 0
0.00923692235423 -0.00556758272269 0
-0.0211419562618 -0.0221327460376 0
-0.0130346000652 -0.00532747605732 0
0.0210668625048 -0.0293953779014 0
0.00021244001767 -0.0783626251227 0
0.00507564496171 -0.00854582760219 0
-0.00111097310974 -0.143020422324 0
0.0161166573719 -0.0608579405441 0
0.00834520650538 -0.000409417741714 0
-0.0123182160716 -0.00165293048405 0
0.00567657509984 -0.0015635488429 0
0.0182532438696 -0.0596385436606 0
0.00337953669599 -0.142069131778 0
-0.0185394944812 -0.0597775286204 0
-0.0159101989795 -0.0807826376076 0
0.00351613017447 -0.0966866692258 0
-0.0209569318801 -0.0321296545605 0
0.0210521787813 -0.0456205343549 0
0.00564783641017 -0.0534996316573 0
0.0107649413478 -0.0994576396975 0
0.00717360531064 -0.000769232749394 0
0.00891391101646 -0.000935681658306 0
-0.0112935647083 -0.0015409678139 0
-0.00842224051366 -0.0516483394047 0
-0.0102348663168 -0.0711728265882 0
0.0060379245212 -0.1363159402 0
0.00867709903572 -0.130846565633 0
-0.0106830685976 -0.00162857283889 0
0.0061540595799 -0.000703143359977 0
0.0125909455211 -0.0034385634831 0
0.00870723050947 -0.00122351788252 0
-0.0115932780641 -0.00157701601096 0
0.0092918914867 1.81105230398e-05 0
0.00282402444685 -0.0201194871838 0
-0.0106508232564 -0.127139133539 0
-0.0216144657383 -0.0467795871486 0
0.0128839542187 -0.0681286294199 0
0.00785963449502 -0.000351955702484 0
0.0176484954086 -0.0777011896156 0
-0.00746269288899 -0.00864944478561 0
-0.011120063211 -0.00144277433574 0
0.00922991357582 -0.00163717750721 0
-0.0112081936502 -0.104598886459 0
0.00829452056786 -0.107482711772 0
-0.0198135489611 -0.0510427807994 0
-0.0125333562713 -0.00215855179313 0
0.0089478909013 -0.000165811007626 0
0.00865539811928 -6.93947333914e-07 0
0.00886760685572 -0.00042633884159 0
-0.0111790473281 -0.00162078005119 0
0.00868103543362 1.40394480579e-05 0
0.00733618524823 -0.00108841452444 0
-0.00624344113738 -0.0123854510459 0
0.0139124477255 -0.00530612876816 0
0.0166229508506 -0.0160848696649 0
-0.022060267263 -0.0487336233567 0
-0.00994716508571 -0.0888887077333 0
0.0101565522664 -0.0886964964375 0
-0.0162165525155 -0.009956715762 0
-0.00129537635296 -0.105013504609 0
-0.0195561822088 -0.0168681146285 0
0.0187832411165 -0.0348817358818 0
-0.0179497703353 -0.0227416338221 0
-0.0184150521698 -0.0788154730776 0
0.00872702914102 -4.35716228067e-05 0
0.0201541047718 -0.0253941162018 0
-0.0117158684011 -0.00191257711033 0
-0.020562851989 -0.057776972121 0
-0.00388194901771 -0.0831947757833 0
0.0155544999475 -0.0701401410533 0
0.00945230174656 -0.00760379672617 0
0.011257851573 -0.00671100704708 0
-0.0152124687691 -0.0386900509359 0
-0.0134755388349 -0.106537350272 0
0.0044097779307 -0.121552608937 0
0.00794777425344 -0.0709637408105 0
0.00952934286431 -0.0857036503213 0
0.0169492166717 -0.0228451172894 0
-0.0206458078119 -0.0640534867526 0
0.0131224739037 -0.0920206926944 0
-0.00626790497876 -0.102314522291 0
0.00876163621248 0.000134694716127 0
-0.00954442517353 -0.00277404965375 0
-0.0106794695969 -0.00646850894079 0
0.0143968259406 -0.00559110929037 0
0.0125715099753 -0.0399478285869 0
0.0138769216799 -0.0985092101274 0
0.0104536279512 -0.00162524543107 0
0.00854251825908 0.000193652308192 0
-0.0113622170741 -0.0804919272377 0
0.00983160876155 -0.125712595087 0
0.00823868433912 -9.65900345653e-05 0
-0.0131787552287 -0.00224506767882 0
0.00238143278011 -0.0663490539335 0
-0.0117923333061 -0.00169321780583 0
0.00845176823117 -0.00163275918735 0
-0.0140486003688 -0.0054462495107 0
-0.0213891151908 -0.0237320041628 0
-0.00892873600065 -0.00376793014281 0
-0.0163524611874 -0.0144324100015 0
0.00878194223228 0.000196250541389 0
-0.0115267874051 -0.0027050340313 0
0.0105700607744 -0.00349393131665 0
-0.0048197886358 -0.000928953986159 0
0.00253417357963 -0.000287077651531 0
-0.013129066585 -0.00313701976967 0
-0.00112063342346 -0.0166264629627 0