# vtk DataFile Version 2.0
Generated with Solid Solver
ASCII
DATASET UNSTRUCTURED_GRID
POINTS 1163 float 
0.0 3.5 0.0
2.2 3.5 0.0
2.2 4.0 0.0
0.0 4.0 0.0
0.0687499999999 3.5 0.0
0.1375 3.5 0.0
0.20625 3.5 0.0
0.275 3.5 0.0
0.343749999999 3.5 0.0
0.412499999999 3.5 0.0
0.481249999999 3.5 0.0
0.549999999999 3.5 0.0
0.618749999998 3.5 0.0
0.687499999998 3.5 0.0
0.756249999998 3.5 0.0
0.824999999998 3.5 0.0
0.893749999998 3.5 0.0
0.962499999997 3.5 0.0
1.03125 3.5 0.0
1.1 3.5 0.0
1.16875 3.5 0.0
1.2375 3.5 0.0
1.30625 3.5 0.0
1.375 3.5 0.0
1.44375 3.5 0.0
1.5125 3.5 0.0
1.58125 3.5 0.0
1.65 3.5 0.0
1.71875 3.5 0.0
1.7875 3.5 0.0
1.85625 3.5 0.0
1.925 3.5 0.0
1.99375 3.5 0.0
2.0625 3.5 0.0
2.13125 3.5 0.0
2.2 3.56430812579 0.0
2.2 3.6227083524 0.0
2.2 3.67574343203 0.0
2.2 3.72390623714 0.0
2.2 3.76764438299 0.0
2.2 3.80736436348 0.0
2.2 3.84343531161 0.0
2.2 3.87619247056 0.0
2.2 3.90594026646 0.0
2.2 3.93295517223 0.0
2.2 3.9574882542 0.0
2.2 3.97976750927 0.0
2.18000003888 4.0 0.0
2.15999995974 4.0 0.0
2.13999995594 4.0 0.0
2.12000003893 4.0 0.0
2.0999999813 4.0 0.0
2.07999993507 4.0 0.0
2.06000001965 4.0 0.0
2.04000002354 4.0 0.0
2.01999993997 4.0 0.0
1.99999999426 4.0 0.0
1.98000004623 4.0 0.0
1.95999996625 4.0 0.0
1.93999996787 4.0 0.0
1.92000005069 4.0 0.0
1.90000001292 4.0 0.0
1.87999994967 4.0 0.0
1.86000003245 4.0 0.0
1.84000003166 4.0 0.0
1.81999995194 4.0 0.0
1.80000002065 4.0 0.0
1.78000005962 4.0 0.0
1.75999997703 4.0 0.0
1.73999998149 4.0 0.0
1.72000006236 4.0 0.0
1.70000000651 4.0 0.0
1.67999995967 4.0 0.0
1.66000004242 4.0 0.0
1.64000004304 4.0 0.0
1.61999996152 4.0 0.0
1.6000000096 4.0 0.0
1.58000006667 4.0 0.0
1.55999998704 4.0 0.0
1.53999998381 4.0 0.0
1.52000006764 4.0 0.0
1.5000000299 4.0 0.0
1.47999996242 4.0 0.0
1.46000004337 4.0 0.0
1.4400000454 4.0 0.0
1.41999996386 4.0 0.0
1.40000002834 4.0 0.0
1.38000006734 4.0 0.0
1.35999998576 4.0 0.0
1.33999998537 4.0 0.0
1.32000006658 4.0 0.0
1.30000001585 4.0 0.0
1.27999996279 4.0 0.0
1.26000004759 4.0 0.0
1.24000004493 4.0 0.0
1.2199999616 4.0 0.0
1.20000000906 4.0 0.0
1.18000006792 4.0 0.0
1.15999998616 4.0 0.0
1.13999999119 4.0 0.0
1.12000007157 4.0 0.0
1.1 4.0 0.0
1.07999992843 4.0 0.0
1.06000000881 4.0 0.0
1.04000001384 4.0 0.0
1.01999993209 4.0 0.0
0.999999990948 4.0 0.0
0.98000003841 4.0 0.0
0.959999955072 4.0 0.0
0.939999952416 4.0 0.0
0.920000037214 4.0 0.0
0.899999984154 4.0 0.0
0.879999933427 4.0 0.0
0.860000014636 4.0 0.0
0.840000014246 4.0 0.0
0.819999932662 4.0 0.0
0.79999997166 4.0 0.0
0.780000036145 4.0 0.0
0.759999954604 4.0 0.0
0.73999995663 4.0 0.0
0.72000003758 4.0 0.0
0.699999970103 4.0 0.0
0.679999932361 4.0 0.0
0.660000016189 4.0 0.0
0.640000012962 4.0 0.0
0.61999993333 4.0 0.0
0.599999990406 4.0 0.0
0.58000003848 4.0 0.0
0.559999956964 4.0 0.0
0.539999957581 4.0 0.0
0.520000040329 4.0 0.0
0.499999993489 4.0 0.0
0.479999937647 4.0 0.0
0.460000018512 4.0 0.0
0.440000022972 4.0 0.0
0.419999940378 4.0 0.0
0.399999979352 4.0 0.0
0.380000048063 4.0 0.0
0.359999968347 4.0 0.0
0.339999967553 4.0 0.0
0.320000050328 4.0 0.0
0.299999987077 4.0 0.0
0.279999949312 4.0 0.0
0.260000032129 4.0 0.0
0.240000033752 4.0 0.0
0.219999953776 4.0 0.0
0.200000005737 4.0 0.0
0.180000060031 4.0 0.0
0.159999976465 4.0 0.0
0.139999980354 4.0 0.0
0.120000064926 4.0 0.0
0.100000018697 4.0 0.0
0.0799999610675 4.0 0.0
0.0600000440571 4.0 0.0
0.0400000402596 4.0 0.0
0.0199999611169 4.0 0.0
0.0 3.97976750927 0.0
0.0 3.9574882542 0.0
0.0 3.93295517223 0.0
0.0 3.90594026646 0.0
0.0 3.87619247056 0.0
0.0 3.84343531161 0.0
0.0 3.80736436348 0.0
0.0 3.76764438299 0.0
0.0 3.72390623714 0.0
0.0 3.67574343203 0.0
0.0 3.6227083524 0.0
0.0 3.56430812579 0.0
0.249757963562 3.75212589829 0.0
1.94999996706 3.74954522137 0.0
0.488710285893 3.75947702441 0.0
0.726520490699 3.7655965719 0.0
0.967283134849 3.7597072979 0.0
1.20619032017 3.75831098673 0.0
1.45842774915 3.76733088374 0.0
1.69012076678 3.7622332834 0.0
0.130754044069 3.86878249167 0.0
2.06924595593 3.86878249167 0.0
1.8299999918 3.84622455633 0.0
1.56816462369 3.85034872999 0.0
0.369913859351 3.84868157925 0.0
0.608733620231 3.84706187144 0.0
1.33069778866 3.84790908234 0.0
0.84323446252 3.84762979148 0.0
1.08873170817 3.84705870913 0.0
0.250539365135 3.87785524304 0.0
1.94967747948 3.87849609822 0.0
1.73218750075 3.8916046151 0.0
0.468661874066 3.89189322974 0.0
1.47574192429 3.89639134117 0.0
0.704258110321 3.8963912684 0.0
1.18331258449 3.8976320365 0.0
0.949999953744 3.89208018478 0.0
1.64795374468 3.91749779939 0.0
0.548928463645 3.91905583847 0.0
1.38619509199 3.91928594438 0.0
0.788926872841 3.91906062101 0.0
1.27071160784 3.91777932845 0.0
1.02999997296 3.91685174433 0.0
1.81733541416 3.69950870754 0.0
1.86999999106 3.91823503401 0.0
0.071252620538 3.93011431841 0.0
2.12874737946 3.93011431841 0.0
2.07400690796 3.74293885365 0.0
0.125993092043 3.74293885365 0.0
0.32995676804 3.92118147353 0.0
2.00999996712 3.92542383197 0.0
0.190000032884 3.92542383197 0.0
1.56698738743 3.72218882919 0.0
1.33000000474 3.72531695685 0.0
0.848014510843 3.71986098938 0.0
1.09024665585 3.72285801424 0.0
0.610276609989 3.72290563624 0.0
1.54999998543 3.92414142844 0.0
0.629999973146 3.92414137652 0.0
0.869999974031 3.92414141814 0.0
1.11000003579 3.92414141267 0.0
1.79030638642 3.92649353654 0.0
0.370434802927 3.72513294336 0.0
0.410903135411 3.92892991244 0.0
1.33000002597 3.93737911571 0.0
0.129927648482 3.94112154503 0.0
2.07007235152 3.94112154503 0.0
1.93000000928 3.93875927586 0.0
0.26999999072 3.93875927586 0.0
1.40966706061 3.83880068991 0.0
0.770332962441 3.83880062149 0.0
1.24904900022 3.84293377683 0.0
1.01033287484 3.83880060723 0.0
0.530342681434 3.83880307444 0.0
0.189895273961 3.63486992823 0.0
2.00989835291 3.62845703161 0.0
0.998888153878 3.61665036233 0.0
1.47894673873 3.61675180774 0.0
0.51733910646 3.62937665489 0.0
0.705112628302 3.618743723 0.0
1.66672137035 3.63168728155 0.0
1.18508242495 3.61871739348 0.0
1.71000003443 3.94408608591 0.0
0.489999965568 3.94463856597 0.0
1.44983363802 3.94422347836 0.0
0.729999997105 3.94465012565 0.0
1.21016639734 3.94422345842 0.0
0.928621800545 3.94440037102 0.0
2.00626203014 3.81543543551 0.0
0.193627962274 3.81528928332 0.0
1.66628164144 3.83559795895 0.0
1.75661718781 3.81065958113 0.0
1.61143779865 3.94859227761 0.0
0.991673865748 3.95161238438 0.0
0.0604617941233 3.86281264864 0.0
2.13953820588 3.86281264865 0.0
0.300965570716 3.8114148258 0.0
0.2970894797 3.66361086085 0.0
0.398842167194 3.60449226805 0.0
1.51000004877 3.95218393067 0.0
1.90135619383 3.81213273629 0.0
0.669405272842 3.95495208979 0.0
1.07142780558 3.94866325309 0.0
0.592085094025 3.94901139323 0.0
0.831051660929 3.94633985879 0.0
1.14940528892 3.9549521224 0.0
0.44409344258 3.82719938178 0.0
1.49646539728 3.82376850413 0.0
0.683434082651 3.82631713605 0.0
0.92337834777 3.8234861632 0.0
1.16343437877 3.82631615351 0.0
1.90749084149 3.65350700271 0.0
1.8278758005 3.95083911942 0.0
0.37243073327 3.95235211027 0.0
1.29345662549 3.60569899261 0.0
0.813407949226 3.60572380122 0.0
1.29317153636 3.96216077293 0.0
1.367704599 3.96055764734 0.0
1.97071235041 3.96038324024 0.0
0.22928764959 3.96038324024 0.0
2.10610581798 3.66047411138 0.0
0.0938941820177 3.66047411138 0.0
1.67000000105 3.95862953468 0.0
1.74869816704 3.96079301687 0.0
0.531976761939 3.96138655466 0.0
0.451361042387 3.96112774725 0.0
0.771976832233 3.96138887156 0.0
1.88843481911 3.95881554986 0.0
1.61277513709 3.78538823015 0.0
2.13311214501 3.79435403671 0.0
0.0668878549946 3.79435403671 0.0
1.76678797151 3.60286552601 0.0
0.311702446283 3.9611157379 0.0
1.02877762737 3.96159282031 0.0
1.40830122607 3.96143175203 0.0
1.25214210333 3.957355862 0.0
1.59476493393 3.9048774062 0.0
1.56950979124 3.96148017208 0.0
0.890017020275 3.96125792969 0.0
2.03089110475 3.96040268709 0.0
0.169108895255 3.96040268709 0.0
0.939722125942 3.68539157065 0.0
1.41686981874 3.69192854313 0.0
0.0426348006718 3.96101756902 0.0
2.15736519933 3.96101756902 0.0
1.36077308019 3.79177204211 0.0
0.817982383499 3.78962669257 0.0
1.05834720932 3.78780184893 0.0
0.578349529346 3.78781530011 0.0
1.77992711518 3.87652731382 0.0
0.417982153133 3.87594990465 0.0
1.84363633012 3.77741329286 0.0
1.52244994479 3.87704541475 0.0
0.657426528912 3.87734838249 0.0
1.13742651778 3.87734834025 0.0
0.898116026439 3.8800466833 0.0
1.56984259435 3.64465823131 0.0
1.08983016076 3.6446495206 0.0
0.609942357805 3.64483976081 0.0
1.29451769374 3.79627773068 0.0
0.0893439668432 3.96574839433 0.0
2.11065603316 3.96574839433 0.0
2.01422398896 3.86980625824 0.0
0.185776011038 3.86980625824 0.0
0.305957237756 3.87340573745 0.0
1.72977480551 3.68665973332 0.0
1.25418096296 3.69351129461 0.0
0.629999973146 3.96272981435 0.0
1.11000003579 3.96272983221 0.0
0.772975283819 3.69297597031 0.0
1.89089074715 3.86951346173 0.0
0.445448577516 3.69456159386 0.0
1.82621986864 3.89678318705 0.0
2.07135424223 3.81165410377 0.0
0.128645757768 3.81165410377 0.0
0.373320289473 3.89968791662 0.0
1.79000004014 3.96541718891 0.0
0.383302070088 3.78976392323 0.0
0.409457623385 3.96502881851 0.0
1.55531527123 3.78787141386 0.0
1.34861332978 3.89383287415 0.0
0.593245985735 3.89483466551 0.0
0.833245353375 3.89479604398 0.0
1.0732444554 3.8948349405 0.0
0.911896623122 3.59194725763 0.0
0.187580554011 3.70699710313 0.0
2.01241944599 3.70699710313 0.0
1.39201907571 3.59233063354 0.0
2.09635520798 3.90516200201 0.0
0.103644792024 3.90516200201 0.0
1.89086147526 3.72621461413 0.0
1.02102684616 3.70044819701 0.0
1.49813234221 3.70194667869 0.0
0.53965669049 3.70593418829 0.0
1.63719578665 3.69772473547 0.0
0.685447658936 3.70127585046 0.0
1.16541741817 3.70128744764 0.0
0.901649266036 3.76287226775 0.0
0.992351690321 3.90662993531 0.0
1.69131894868 3.90657323657 0.0
1.9699561555 3.91599371502 0.0
0.230043844497 3.91599371502 0.0
1.61980840676 3.85005402918 0.0
2.04685187594 3.90639759008 0.0
0.153148124058 3.90639759008 0.0
0.512139828486 3.90538520837 0.0
1.43057458921 3.90702644399 0.0
0.749149996349 3.90689574876 0.0
[...]
POINT_DATA 1163
VECTORS Displacement float
0.0 0.0 0
0.0 0.0 0
0.0118808262874 -0.00237125765081 0
-0.00772164049301 -0.00198821110979 0
0.0 0.0 0
0.0 0.0 0
0.0 0.0 0
0.0 0.0 0
0.0 0.0 0
0.0 0.0 0
0.0 0.0 0
0.0 0.0 0
0.0 0.0 0
0.0 0.0 0
0.0 0.0 0
0.0 0.0 0
0.0 0.0 0
0.0 0.0 0
0.0 0.0 0
0.0 0.0 0
0.0 0.0 0
0.0 0.0 0
0.0 0.0 0
0.0 0.0 0
0.0 0.0 0
0.0 0.0 0
0.0 0.0 0
0.0 0.0 0
0.0 0.0 0
0.0 0.0 0
0.0 0.0 0
0.0 0.0 0
0.0 0.0 0
0.0 0.0 0
0.0 0.0 0
0.0070181132874 -0.00519802233983 0
0.0120134894378 -0.00666292125006 0
0.0154804219026 -0.00667101378409 0
0.0172434305879 -0.00596842895031 0
0.0178885159457 -0.00509865333028 0
0.0177607180363 -0.00421659516125 0
0.0170564246885 -0.00351714188938 0
0.0161862602163 -0.00298712242934 0
0.0151741529403 -0.00263408628126 0
0.0141930395406 -0.00246437315785 0
0.0133086773366 -0.00238861273795 0
0.0125434799905 -0.00236932636347 0
0.0118828350321 -0.00301907913868 0
0.011874402863 -0.00363203812665 0
0.0118299819344 -0.00421548411564 0
0.0117310005154 -0.00478077894857 0
0.0115687923786 -0.00535350678613 0
0.0113402396829 -0.00596826289795 0
0.0110270007726 -0.00662969813706 0
0.0106543768416 -0.00739900054566 0
0.0101936272334 -0.0082718141871 0
0.00969304212902 -0.00930021727822 0
0.00909617596131 -0.01048222538 0
0.00844113559574 -0.0118956258301 0
0.00776958305422 -0.0135443769783 0
0.00701668158816 -0.0154688797801 0
0.0062881843887 -0.0177040990452 0
0.00548565944838 -0.0202945195573 0
0.00466652815934 -0.0233271176064 0
0.00390695281252 -0.0268362853187 0
0.0031876715977 -0.0309681258942 0
0.00248647047055 -0.0358336854312 0
0.00216435509674 -0.0417124901852 0
0.00236123877891 -0.0486657013895 0
0.00375774108353 -0.0583801126272 0
0.00534889261322 -0.067664344343 0
0.00703013671766 -0.076520468698 0
0.00840972743905 -0.084754109018 0
0.00966767392116 -0.0925382744496 0
0.0106267047581 -0.0998791715821 0
0.0113590086312 -0.106786018834 0
0.0117582496852 -0.113243039399 0
0.0119148554533 -0.119227953998 0
0.0119371880497 -0.124710235997 0
0.0116811163354 -0.129798383212 0
0.0112029941274 -0.134377406889 0
0.0105076888944 -0.138458642234 0
0.0096314091972 -0.142029455536 0
0.00857976644295 -0.145073839173 0
0.00738331937676 -0.147587507162 0
0.00606019610295 -0.149560486902 0
0.00459727409106 -0.150987010526 0
0.00303657730946 -0.151853298723 0
0.00132889373064 -0.152140428151 0
-0.000243014451781 -0.151872627925 0
-0.00177190728275 -0.151102256456 0
-0.00317985341979 -0.149749509634 0
-0.00446431637651 -0.147844835216 0
-0.00562521324931 -0.145400313213 0
-0.00665589475652 -0.142424837194 0
-0.00750572039744 -0.138927577721 0
-0.00815734900039 -0.134923464422 0
-0.0086231319292 -0.130417399543 0
-0.0088489568009 -0.12542581604 0
-0.00882409273024 -0.119970397687 0
-0.00855479101623 -0.114049439249 0
-0.00805999785155 -0.107668424202 0
-0.00723109335333 -0.100902895592 0
-0.00619915572803 -0.0936681130565 0
-0.00497776808717 -0.0859647566645 0
-0.00339425622713 -0.0778807420338 0
-0.00175509567658 -0.0692020420254 0
-1.21799748253e-05 -0.0601014318549 0
0.00181119725221 -0.050405265153 0
0.00260474814833 -0.042434329659 0
0.00251101712198 -0.0361001343464 0
0.00222355803282 -0.0309086236961 0
0.00169184562113 -0.026448522558 0
0.00118168908693 -0.022597533863 0
0.000556484710512 -0.01924578937 0
-7.15831883601e-05 -0.0163605987484 0
-0.000690946093064 -0.0138481897934 0
-0.00130477496797 -0.0116421760998 0
-0.00189591738392 -0.00973451758486 0
-0.00242243914932 -0.00806744618565 0
-0.00295192276488 -0.00662276802291 0
-0.00343521585919 -0.00537087716033 0
-0.00388465155244 -0.00429861339552 0
-0.00430255130712 -0.00337128630463 0
-0.00468356466214 -0.00257668727422 0
-0.00501789660591 -0.00189168393463 0
-0.00533823615039 -0.00131635317319 0
-0.0056172452012 -0.000830736384277 0
-0.0058748686443 -0.000436765543951 0
-0.00609466466792 -0.000108554366091 0
-0.00629746231931 0.00015757558956 0
-0.00647094554018 0.000372215042804 0
-0.0066327786955 0.000532588756638 0
-0.00676814860702 0.000653644464894 0
-0.00688903412344 0.000730223477588 0
-0.00698929253076 0.000780838118485 0
-0.00708270802996 0.000799207108002 0
-0.00716653301134 0.000790960918691 0
-0.00723585380587 0.00076100581169 0
-0.00729851256035 0.000707638898597 0
-0.00735315733628 0.000637729221667 0
-0.00740315337225 0.000550226152152 0
-0.00744572273762 0.000448664289039 0
-0.00748678658325 0.000332256998622 0
-0.00752249589313 0.000203257922856 0
-0.00755689482625 6.18588212006e-05 0
-0.00758852925904 -9.21555741234e-05 0
-0.00761536283247 -0.000255357128279 0
-0.00764109290437 -0.000428083485341 0
-0.00766269757613 -0.000608584589982 0
-0.00768213205801 -0.000796991681911 0
-0.00769711722503 -0.000990592254221 0
-0.00770873573397 -0.00118874679402 0
-0.00771654225147 -0.00138949575822 0
-0.00772047454384 -0.00159050814389 0
-0.00772166872539 -0.00179051005538 0
-0.00752236101007 -0.00198819333022 0
-0.00730511772532 -0.00199033261886 0
-0.00706739253817 -0.00199671252104 0
-0.00680257255159 -0.00200997442834 0
-0.00650120519234 -0.00203482833878 0
-0.00614292722452 -0.00206797323481 0
-0.00572159223888 -0.00210369885654 0
-0.00519145168918 -0.00213752159603 0
-0.0045338474908 -0.00213669278292 0
-0.00370447015009 -0.002055176688 0
-0.00265539408982 -0.0018165150309 0
-0.00144862475385 -0.00127818000102 0
-0.00548746936617 5.22619385952e-05 0
0.020367512491 -0.0102402657441 0
-0.00824179465115 -0.000101182320449 0
-0.0142420816062 -0.00668757455442 0
-0.020555684957 -0.0322497748743 0
-0.0112615976277 -0.0633035303365 0
0.00979979473642 -0.0696035946609 0
0.0230696468441 -0.0416323648658 0
-0.00646923768727 -0.000684139432117 0
0.0168479610146 -0.00605594004177 0
0.0221496245832 -0.0263142144648 0
0.0182485188989 -0.0812921446522 0
-0.00713035163861 0.000657927508451 0
-0.00983263190008 -0.00160557952513 0
-0.00111722167584 -0.0981426589814 0
-0.0162190372987 -0.0187648317591 0
-0.0181288928543 -0.0694094693756 0
-0.00674538233117 0.000253615577857 0
0.0175821228339 -0.0121186969306 0
0.0218281772639 -0.0515209026949 0
-0.00764242465879 0.000604643247933 0
0.0111946688754 -0.108158458905 0
-0.00963817744881 -0.00543454164668 0
-0.0121121471166 -0.100444754349 0
-0.0170440007441 -0.0419733113527 0
0.0192469260866 -0.0799156240745 0
-0.00760825409308 -0.000144869357629 0
0.00374060224353 -0.122358957936 0
-0.00938587580054 -0.0123603108096 0
-0.00576717569242 -0.118184791237 0
-0.0160513393957 -0.0684741092306 0
0.0211849024079 -0.0183098202315 0
0.0159279104376 -0.0212826955295 0
-0.00704293016971 -0.00127257738489 0
0.0143256441423 -0.00450648788537 0
0.0182851755111 -0.00542075412039 0
-0.00488521817323 -0.000702120666396 0
-0.00711909879942 0.0006859951766 0
0.0143230341657 -0.00841305402048 0
-0.00701734699765 -0.000159381898214 0
0.0165644479837 -0.0486833586574 0
-0.00126719221937 -0.0596218431716 0
-0.0177859633539 -0.0146981410688 0
-0.0171090680329 -0.0427388185964 0
-0.0105999335434 -0.00209109964758 0
0.0153192870873 -0.105178485961 0
-0.00772404135586 -0.00204503319686 0
-0.0108038402134 -0.0242160291173 0
-0.014252084188 -0.0923937348906 0
0.0171806953431 -0.0377385288484 0
-0.00616916836778 0.000174270073915 0
-0.00723220545272 0.00082613692823 0
-0.000972195524533 -0.128706443669 0
-0.00714188808547 -0.000691835406076 0
0.013686745626 -0.0060972086632 0
0.0133299838378 -0.01404602091 0
-0.0071390579167 0.000408634990126 0
0.00592109755114 -0.0944133061331 0
-0.0140685419364 -0.0103740832581 0
-0.00814607484881 -0.091942124691 0
-0.0201923728008 -0.0507848661389 0
-0.00873272152796 -0.000145853863997 0
-0.00305760411514 -0.000261828569731 0
0.0134573540236 -0.00447096089291 0
-0.0132973700385 -0.0164139970975 0
0.00704067966736 -0.0273201163904 0
-0.00624368341665 -0.000767577305697 0
-0.00973170173812 -0.00363004111104 0
0.0150996812134 -0.0218040455518 0
-0.00851251821264 -0.0261312465149 0
0.0169666521677 -0.0650455483737 0
-0.0071382410686 0.00053277080946 0
0.00860652694833 -0.126872027762 0
-0.00680368405979 -0.00710090910926 0
-0.00931139828276 -0.119126968116 0
-0.0101776125049 -0.0383931681459 0
0.0190540535661 -0.00817503811043 0
-0.00601444022747 -0.000180814079792 0
0.0230013543601 -0.0589545442224 0
0.0242880027105 -0.0370019552335 0
0.0161431552302 -0.0972083187501 0
-0.011482910181 -0.0605343559594 0
-0.00637132242877 -0.00138895356061 0
0.0167863536825 -0.0044831505667 0
-0.00646899661397 0.000377957948625 0
-0.00433184325136 -3.80128532749e-05 0
-0.00383138868895 -0.000262000006249 0
0.0122926452281 -0.121117127242 0
0.0213632083278 -0.0157325227038 0
-0.0063359068158 -0.0036037211254 0
-0.0129302137866 -0.0873428368732 0
-0.00687066419246 -0.000971851540087 0
-0.0071529716897 -0.0177142627101 0
-0.0114175751707 -0.110078096902 0
-0.00775357103641 0.000500997629504 0
0.013326127603 -0.0833711819373 0
-0.0119698870578 -0.00446575278107 0
-0.019756126847 -0.0310131001139 0
-0.0144931183955 -0.0771993286675 0
0.0169481903124 -0.00902597610963 0
0.0126125554927 -0.0290239796174 0
-0.00717488524869 0.000814348196707 0
-0.00285923498225 -0.0255284912881 0
-0.0111723601214 -0.00646310835113 0
-0.00374584237135 -0.135483212219 0
0.00211345387422 -0.137400232127 0
0.0117495866018 -0.0108085275487 0
-0.00727109164121 0.000143352976453 0
0.0147441798283 -0.00416675573732 0
-0.00336923900124 -0.00080877580545 0
0.0154811587099 -0.0813979769072 0
0.0134330995267 -0.0523851275565 0
-0.00679183215865 9.97916029706e-05 0
-0.00704514336071 0.000744889970848 0
-0.0053004410093 -0.0106101689002 0
0.0111098144138 -0.0188072659074 0
0.0207232765246 -0.0580270134849 0
0.0182176695595 -0.00487323420941 0
-0.00556896845654 -0.00130667571476 0
0.0137802992793 -0.011938918439 0
-0.00722657182418 0.000624252448545 0
-0.0109190582129 -0.075581620184 0
0.0053598836738 -0.136337844763 0
-0.00661986191898 -0.129623711366 0
0.0182318300415 -0.0904087844264 0
0.0143558554511 -0.111513807106 0
-0.00590329033374 -0.0284673330017 0
0.0124460988675 -0.00755442244115 0
-0.00729851451785 -0.000336540093458 0
-0.0179843783489 -0.0206320309802 0
0.00533354204124 -0.0492534159156 0
-0.00733895427632 -0.0015635215932 0
0.0131731029206 -0.00370944093614 0
0.00146832620164 -0.0802700324301 0
-0.0171329159234 -0.0143801275582 0
-0.019620389273 -0.0514040717467 0
-0.0100078000275 -0.00115161724447 0
0.021951847703 -0.0378687382645 0
-0.00743812728569 0.000731668854404 0
0.0229938572644 -0.0208628665762 0
0.01486511894 -0.0959860674738 0
-0.00975147882206 -0.0031696822147 0
-0.0151860629805 -0.0864466584956 0
-0.0161877988419 -0.0290762194778 0
0.0128768100742 -0.0303321339335 0
-0.0134934457021 -0.0268856914765 0
-0.00863828286112 -0.00192531060717 0
-0.00438701810946 -0.0803566061471 0
-0.00737538886948 -0.00109076914018 0
0.0128473512877 -0.00497628280574 0
0.0172125898538 -0.00806554428704 0
-0.00654610012893 -0.000208846644396 0
-0.00689177053132 0.000537183419339 0
0.0203876844579 -0.0252658297427 0
-0.00689279749023 -0.0482948864411 0
-0.00622858105342 -0.00207588923095 0
-0.0115711700948 -0.101894212482 0
-0.0148628460147 -0.00811895472781 0
0.0193572659062 -0.0179434533094 0
-0.00672654782021 -0.000151022775081 0
0.0191659748658 -0.0286848518029 0
0.0183746303577 -0.00588881202495 0
-0.00583615730563 -0.000700469839068 0
-0.00719390571246 0.000774986790874 0
0.0108719385771 -0.0385460420339 0
-0.0069743748271 0.000451213738667 0
-0.00711328433001 0.000831660288411 0
0.0172954634225 -0.0665106850978 0
0.000550035521421 -0.113859862594 0
-0.00844334551305 -0.00104720111917 0
-0.012625409927 -0.0178962747479 0
-0.0168942585296 -0.0763538117973 0
-0.0111635851256 -0.00924198161252 0
-0.00446042230098 -0.000282878589879 0
0.0180311260095 -0.00638297110397 0
0.00205202170815 -0.0224152507684 0
0.0153401025139 -0.00532862837742 0
-0.00680989830385 -0.000944513615637 0
0.0210716473596 -0.0135569032187 0
-0.0182935261873 -0.0309578712332 0
0.011524017527 -0.0486645836546 0
-0.00866140575678 -0.000861044590362 0
0.0188468714039 -0.036445660846 0
-0.0123635744457 -0.00427870610613 0
-0.0127516609256 -0.0449611931891 0
-0.0197841564957 -0.0232959430866 0
-0.0166698950521 -0.0555097317984 0
0.0206524171256 -0.0653774923891 0
0.014985323532 -0.0107349129365 0
-0.00697512282547 0.000142584779806 0
0.0210128516956 -0.0715968635491 0
0.0153253910694 -0.00682203021623 0
-0.00683998002577 -0.000477849474628 0
-0.00771029504446 0.000295368192408 0
0.00752320158888 -0.115899903643 0
-0.00970693534451 -0.00857503411831 0
-0.00895693158631 -0.111182902765 0
0.0175580926362 -0.00495025699459 0
-0.0045604761277 -0.0012762496261 0
-0.00742104921198 -0.0487345666133 0
-0.00675426144749 -0.0015900401657 0
0.015458470529 -0.00385852715269 0
0.0101281956278 -0.131061355049 0
-0.00544215882836 -0.00531638114048 0
-0.00987977959634 -0.120802978176 0
-0.00632520671999 0.000165253536535 0
-0.00596643479339 0.000236695491697 0
-0.00488985094021 -0.103952816944 0
0.0197184370328 -0.0113789475644 0
-0.000930467924415 -0.138769538172 0
0.023384799044 -0.0289263740693 0
-0.0169969876673 -0.0585597727213 0
-0.0115030339294 -0.00275399926899 0
0.0111315460097 -0.118369573974 0
-0.00766914541682 -0.00501293252554 0
-0.0114087601177 -0.109099979438 0
0.0146583597198 -0.0936089167022 0
-0.0188208519395 -0.021293301254 0
0.0114400739256 -0.00686478407634 0
0.0108570710417 -0.014170637078 0
-0.00727379157724 0.000408136196556 0
-0.00654836910985 -0.000337324138785 0
-0.00460772032901 -0.0134080213533 0
0.0132851113633 -0.118979122331 0
-0.004822613005 -0.0227025580025 0
0.00971132109525 -0.0226269267032 0
0.0125654935562 -0.00616178807671 0
-0.00735988253455 -0.000692217306977 0
-0.00722312621153 0.000720927912048 0
0.0238851979762 -0.0483013244322 0
0.0115958434498 -0.00917138052973 0
-0.00733927632773 -6.53493766952e-05 0
-0.00810805102828 0.000369367500486 0
0.0100908820937 -0.093641207168 0
-0.0123818922285 -0.00666395031651 0
-0.0119922339667 -0.0860135713309 0
-0.0198653575142 -0.0408736713738 0
0.0105914174953 -0.00456504175597 0
-0.00208642048607 -0.000164173217908 0
0.0194429039334 -0.0485646570339 0
-0.0135922074595 -0.0487057845196 0
-0.00735883382349 0.000738157662451 0
-0.00299051306556 -0.117110026461 0
-0.013279197031 -0.0132780844384 0
-0.0187577695748 -0.0626575657847 0
-0.00863182822794 -0.000413126048733 0
-0.00164135661469 -0.000325369653679 0
0.00823527642572 -0.00243035623249 0
-0.00248601324206 -0.000176558471144 0
0.0163768840354 -0.0167755584603 0
-0.00700777659213 0.000529751165939 0
0.0134370880235 -0.0657828498982 0
0.00354315937091 -0.105969624729 0
-0.0136271020427 -0.0322394511983 0
-0.00722847538137 0.000163562406846 0
0.013754461031 -0.109010157689 0
-0.00817164386647 -0.00339433485375 0
-0.0134067420298 -0.098615387355 0
0.0176527549202 -0.00530133750428 0
-0.0061140916005 -0.000983307632098 0
0.0131967217546 -0.0685223160423 0
0.0160906792169 -0.102260785581 0
0.0190768227588 -0.00681152335739 0
-0.00539094202369 -0.000368840745145 0
-0.00685711666526 0.000514382385103 0
0.00861661348099 -0.134035671345 0
-0.00525570207358 -0.00684858286601 0
-0.00585591746083 -0.0400127481999 0
-0.00894378154766 -0.125428841778 0
-0.00651708545849 -0.0634972472139 0
0.0220002962069 -0.0667702216524 0
0.0177329194658 -0.00445227518062 0
-0.00589342091074 -0.0016147192429 0
0.00387177652234 -0.0611307783774 0
0.00746838908228 -0.0107996985696 0
0.023803177913 -0.0282734490791 0
-0.00636209356278 -0.0120352857545 0
-0.000582383396572 -0.0411025464312 0
-0.00512116418019 -0.00161579407169 0
-0.0156399143615 -0.0118776087044 0
-0.00434100750462 -6.59688763068e-05 0
-0.0161529843961 -0.0101617799801 0
-0.00678663370689 0.00051516140456 0
0.0175212673822 -0.0907224783471 0
-0.00343777539684 -0.000416110192469 0
-0.00183824888352 -0.000822589869915 0
0.00892417954333 -0.00335394760871 0
0.0128305114879 -0.00431347994709 0
-0.00741346521148 -0.00134154617578 0
0.0192799047083 -0.0223591449734 0
-0.00433083721114 -0.0172305276841 0
-0.00765375761388 -0.00340033291605 0
-0.00703692205428 -0.00168626152192 0
0.014351607003 -0.00345986605119 0
-0.00454907556185 -0.000871496195404 0
0.0180508163951 -0.00850155131268 0
-0.00505103784133 -4.368909112e-05 0
-0.0093195214727 -0.0122131450588 0
0.00655811348857 -0.0169100848477 0
-0.00899553205739 -0.000335783960724 0
-0.00702509923661 0.00064253064795 0
0.00729086810495 -0.0767351365787 0
-0.0206897814531 -0.0421284989447 0
0.0138888603519 -0.104689444198 0
-0.00704514770071 -0.062695885874 0
0.00117881453327 -0.123620492551 0
0.0179990641305 -0.00694886824571 0
-0.0062327804178 -0.000421743282771 0
0.00980101663247 -0.00990006728664 0
-0.00826675347071 -0.0751248515641 0
-0.00920293391384 -0.0854951760427 0
-0.0153022745545 -0.00918032594889 0
-0.0153879859167 -0.0140281606088 0
-0.0195452231726 -0.0596049029348 0
-0.00916200342792 -0.000619329584729 0
0.00251644882964 -0.0951409347346 0
0.00395697475554 -0.143535739397 0
-0.0052736506562 -0.138668063351 0
0.0174275039416 -0.0118830173423 0
0.0140652737077 -0.00523805400135 0
-0.00708716218907 -0.000977935091683 0
-0.00607120346504 -0.00137193141821 0
-0.00560738128148 -0.00298409892954 0
-0.0109047646287 -0.0966867405677 0
-0.0106570566134 -0.111081823641 0
-0.00415925360784 -0.000604523891314 0
0.0170820416786 -0.00497895685239 0
0.0238925840689 -0.0476515476827 0
0.0153389228287 -0.0045869306994 0
-0.0067977576481 -0.00126050995067 0
0.0214210756802 -0.019237567937 0
0.01142559971 -0.130433011132 0
-0.00222867328308 -0.0176245677907 0
-0.0127825241619 -0.00445226895692 0
-0.0145386656414 -0.0643216123001 0
0.00891050947798 -0.0323229693483 0
-0.00740278661544 -0.101193372483 0
-0.00714600203572 0.000824116003087 0
-0.00745080664555 -0.00172178742854 0
0.0127860475819 -0.00323795897685 0
-0.014065543574 -0.0230889296978 0
-0.0161159519089 -0.0832219548702 0
-0.00888942379764 -0.00197505629412 0
-0.00651800308249 4.94550638878e-05 0
0.0220084263909 -0.0157229224726 0
0.0177633803228 -0.00982043430575 0
0.013961004501 -0.0069304117449 0
-0.00707613283401 -0.000458639058373 0
0.0155470171309 -0.0256762210328 0
0.00897938767581 -0.044806059384 0
-0.00701776576341 0.000792804074824 0
0.022643079765 -0.0526994387949 0
0.0159686370667 -0.0836475321725 0
-0.0107771247881 -0.00281244393431 0
-0.0184598144844 -0.0254895696021 0
-0.0166502876427 -0.0737234364558 0
-0.00739502745997 0.000631712786452 0
-0.0192700016658 -0.0499602136669 0
-0.00823248563703 0.000187815106478 0
0.00770974521148 -0.103243093697 0
-0.00818748375214 0.000223519947255 0
-0.0120356312569 -0.00869820802257 0
0.0159060167968 -0.00919425459396 0
0.010276881289 -0.0804901167904 0
-0.00681650683723 -5.10468100994e-05 0
-0.0135949807456 -0.00650078359233 0
-0.0206766125932 -0.0361051252003 0
-0.0120033122963 -0.0751648248067 0
0.0183392375271 -0.088206525093 0
0.0204996045479 -0.0776765017458 0
-0.00755094022383 -0.000601589595365 0
-0.00938964890496 -0.0154690304637 0
-0.0154817582237 -0.0779844726386 0
0.000598881636207 -0.143979404673 0
-0.00241505950992 -0.142663148359 0
0.012638278329 -0.0960165643107 0
-0.0108895541301 -0.00474200751436 0
-0.0136761270148 -0.0889820788521 0
-0.0183291939172 -0.0358851122092 0
0.00987282784598 -0.0125624481521 0
-0.00737341000777 0.000287291690305 0
-0.00716415940133 0.000771513810025 0
0.0213483146979 -0.0452623491935 0
0.00664588069951 -0.126060335881 0
-0.00793800488862 -0.120497115635 0
0.0232785089859 -0.0442604167353 0
0.00906612962406 -0.016231875795 0
-0.00541539970341 -0.00412296073058 0
-0.0103245563972 -0.117050776275 0
0.0199949980468 -0.00958344415018 0
-0.00586765186343 1.69733428328e-06 0
-0.0196755970931 -0.0401071149245 0
-0.00647610345802 -0.00165505214745 0
0.0163978661171 -0.00391117238154 0
-0.00694161347441 0.000598739461931 0
-0.00951724068819 -0.000941899299664 0
-0.00732368494958 0.000510871906874 0
-0.00771796257254 0.000609165059556 0
0.0156580134913 -0.0126983075715 0
-0.00696095812552 0.000313819897979 0
0.0221597187868 -0.0614749490528 0
-0.00154681832146 -0.000179590075151 0
0.00785239536546 -0.00255024548084 0