# vtk DataFile Version 2.0
Generated with Solid Solver
ASCII
DATASET UNSTRUCTURED_GRID
POINTS 1163 float 
0.0 3.5 0.0
2.2 3.5 0.0
2.2 4.0 0.0
0.0 4.0 0.0
0.0687499999999 3.5 0.0
0.1375 3.5 0.0
0.20625 3.5 0.0
0.275 3.5 0.0
0.343749999999 3.5 0.0
0.412499999999 3.5 0.0
0.481249999999 3.5 0.0
0.549999999999 3.5 0.0
0.618749999998 3.5 0.0
0.687499999998 3.5 0.0
0.756249999998 3.5 0.0
0.824999999998 3.5 0.0
0.893749999998 3.5 0.0
0.962499999997 3.5 0.0
1.03125 3.5 0.0
1.1 3.5 0.0
1.16875 3.5 0.0
1.2375 3.5 0.0
1.30625 3.5 0.0
1.375 3.5 0.0
1.44375 3.5 0.0
1.5125 3.5 0.0
1.58125 3.5 0.0
1.65 3.5 0.0
1.71875 3.5 0.0
1.7875 3.5 0.0
1.85625 3.5 0.0
1.925 3.5 0.0
1.99375 3.5 0.0
2.0625 3.5 0.0
2.13125 3.5 0.0
2.2 3.56430812579 0.0
2.2 3.6227083524 0.0
2.2 3.67574343203 0.0
2.2 3.72390623714 0.0
2.2 3.76764438299 0.0
2.2 3.80736436348 0.0
2.2 3.84343531161 0.0
2.2 3.87619247056 0.0
2.2 3.90594026646 0.0
2.2 3.93295517223 0.0
2.2 3.9574882542 0.0
2.2 3.97976750927 0.0
2.18000003888 4.0 0.0
2.15999995974 4.0 0.0
2.13999995594 4.0 0.0
2.12000003893 4.0 0.0
2.0999999813 4.0 0.0
2.07999993507 4.0 0.0
2.06000001965 4.0 0.0
2.04000002354 4.0 0.0
2.01999993997 4.0 0.0
1.99999999426 4.0 0.0
1.98000004623 4.0 0.0
1.95999996625 4.0 0.0
1.93999996787 4.0 0.0
1.92000005069 4.0 0.0
1.90000001292 4.0 0.0
1.87999994967 4.0 0.0
1.86000003245 4.0 0.0
1.84000003166 4.0 0.0
1.81999995194 4.0 0.0
1.80000002065 4.0 0.0
1.78000005962 4.0 0.0
1.75999997703 4.0 0.0
1.73999998149 4.0 0.0
1.72000006236 4.0 0.0
1.70000000651 4.0 0.0
1.67999995967 4.0 0.0
1.66000004242 4.0 0.0
1.64000004304 4.0 0.0
1.61999996152 4.0 0.0
1.6000000096 4.0 0.0
1.58000006667 4.0 0.0
1.55999998704 4.0 0.0
1.53999998381 4.0 0.0
1.52000006764 4.0 0.0
1.5000000299 4.0 0.0
1.47999996242 4.0 0.0
1.46000004337 4.0 0.0
1.4400000454 4.0 0.0
1.41999996386 4.0 0.0
1.40000002834 4.0 0.0
1.38000006734 4.0 0.0
1.35999998576 4.0 0.0
1.33999998537 4.0 0.0
1.32000006658 4.0 0.0
1.30000001585 4.0 0.0
1.27999996279 4.0 0.0
1.26000004759 4.0 0.0
1.24000004493 4.0 0.0
1.2199999616 4.0 0.0
1.20000000906 4.0 0.0
1.18000006792 4.0 0.0
1.15999998616 4.0 0.0
1.13999999119 4.0 0.0
1.12000007157 4.0 0.0
1.1 4.0 0.0
1.07999992843 4.0 0.0
1.06000000881 4.0 0.0
1.04000001384 4.0 0.0
1.01999993209 4.0 0.0
0.999999990948 4.0 0.0
0.98000003841 4.0 0.0
0.959999955072 4.0 0.0
0.939999952416 4.0 0.0
0.920000037214 4.0 0.0
0.899999984154 4.0 0.0
0.879999933427 4.0 0.0
0.860000014636 4.0 0.0
0.840000014246 4.0 0.0
0.819999932662 4.0 0.0
0.79999997166 4.0 0.0
0.780000036145 4.0 0.0
0.759999954604 4.0 0.0
0.73999995663 4.0 0.0
0.72000003758 4.0 0.0
0.699999970103 4.0 0.0
0.679999932361 4.0 0.0
0.660000016189 4.0 0.0
0.640000012962 4.0 0.0
0.61999993333 4.0 0.0
0.599999990406 4.0 0.0
0.58000003848 4.0 0.0
0.559999956964 4.0 0.0
0.539999957581 4.0 0.0
0.520000040329 4.0 0.0
0.499999993489 4.0 0.0
0.479999937647 4.0 0.0
0.460000018512 4.0 0.0
0.440000022972 4.0 0.0
0.419999940378 4.0 0.0
0.399999979352 4.0 0.0
0.380000048063 4.0 0.0
0.359999968347 4.0 0.0
0.339999967553 4.0 0.0
0.320000050328 4.0 0.0
0.299999987077 4.0 0.0
0.279999949312 4.0 0.0
0.260000032129 4.0 0.0
0.240000033752 4.0 0.0
0.219999953776 4.0 0.0
0.200000005737 4.0 0.0
0.180000060031 4.0 0.0
0.159999976465 4.0 0.0
0.139999980354 4.0 0.0
0.120000064926 4.0 0.0
0.100000018697 4.0 0.0
0.0799999610675 4.0 0.0
0.0600000440571 4.0 0.0
0.0400000402596 4.0 0.0
0.0199999611169 4.0 0.0
0.0 3.97976750927 0.0
0.0 3.9574882542 0.0
0.0 3.93295517223 0.0
0.0 3.90594026646 0.0
0.0 3.87619247056 0.0
0.0 3.84343531161 0.0
0.0 3.80736436348 0.0
0.0 3.76764438299 0.0
0.0 3.72390623714 0.0
0.0 3.67574343203 0.0
0.0 3.6227083524 0.0
0.0 3.56430812579 0.0
0.249757963562 3.75212589829 0.0
1.94999996706 3.74954522137 0.0
0.488710285893 3.75947702441 0.0
0.726520490699 3.7655965719 0.0
0.967283134849 3.7597072979 0.0
1.20619032017 3.75831098673 0.0
1.45842774915 3.76733088374 0.0
1.69012076678 3.7622332834 0.0
0.130754044069 3.86878249167 0.0
2.06924595593 3.86878249167 0.0
1.8299999918 3.84622455633 0.0
1.56816462369 3.85034872999 0.0
0.369913859351 3.84868157925 0.0
0.608733620231 3.84706187144 0.0
1.33069778866 3.84790908234 0.0
0.84323446252 3.84762979148 0.0
1.08873170817 3.84705870913 0.0
0.250539365135 3.87785524304 0.0
1.94967747948 3.87849609822 0.0
1.73218750075 3.8916046151 0.0
0.468661874066 3.89189322974 0.0
1.47574192429 3.89639134117 0.0
0.704258110321 3.8963912684 0.0
1.18331258449 3.8976320365 0.0
0.949999953744 3.89208018478 0.0
1.64795374468 3.91749779939 0.0
0.548928463645 3.91905583847 0.0
1.38619509199 3.91928594438 0.0
0.788926872841 3.91906062101 0.0
1.27071160784 3.91777932845 0.0
1.02999997296 3.91685174433 0.0
1.81733541416 3.69950870754 0.0
1.86999999106 3.91823503401 0.0
0.071252620538 3.93011431841 0.0
2.12874737946 3.93011431841 0.0
2.07400690796 3.74293885365 0.0
0.125993092043 3.74293885365 0.0
0.32995676804 3.92118147353 0.0
2.00999996712 3.92542383197 0.0
0.190000032884 3.92542383197 0.0
1.56698738743 3.72218882919 0.0
1.33000000474 3.72531695685 0.0
0.848014510843 3.71986098938 0.0
1.09024665585 3.72285801424 0.0
0.610276609989 3.72290563624 0.0
1.54999998543 3.92414142844 0.0
0.629999973146 3.92414137652 0.0
0.869999974031 3.92414141814 0.0
1.11000003579 3.92414141267 0.0
1.79030638642 3.92649353654 0.0
0.370434802927 3.72513294336 0.0
0.410903135411 3.92892991244 0.0
1.33000002597 3.93737911571 0.0
0.129927648482 3.94112154503 0.0
2.07007235152 3.94112154503 0.0
1.93000000928 3.93875927586 0.0
0.26999999072 3.93875927586 0.0
1.40966706061 3.83880068991 0.0
0.770332962441 3.83880062149 0.0
1.24904900022 3.84293377683 0.0
1.01033287484 3.83880060723 0.0
0.530342681434 3.83880307444 0.0
0.189895273961 3.63486992823 0.0
2.00989835291 3.62845703161 0.0
0.998888153878 3.61665036233 0.0
1.47894673873 3.61675180774 0.0
0.51733910646 3.62937665489 0.0
0.705112628302 3.618743723 0.0
1.66672137035 3.63168728155 0.0
1.18508242495 3.61871739348 0.0
1.71000003443 3.94408608591 0.0
0.489999965568 3.94463856597 0.0
1.44983363802 3.94422347836 0.0
0.729999997105 3.94465012565 0.0
1.21016639734 3.94422345842 0.0
0.928621800545 3.94440037102 0.0
2.00626203014 3.81543543551 0.0
0.193627962274 3.81528928332 0.0
1.66628164144 3.83559795895 0.0
1.75661718781 3.81065958113 0.0
1.61143779865 3.94859227761 0.0
0.991673865748 3.95161238438 0.0
0.0604617941233 3.86281264864 0.0
2.13953820588 3.86281264865 0.0
0.300965570716 3.8114148258 0.0
0.2970894797 3.66361086085 0.0
0.398842167194 3.60449226805 0.0
1.51000004877 3.95218393067 0.0
1.90135619383 3.81213273629 0.0
0.669405272842 3.95495208979 0.0
1.07142780558 3.94866325309 0.0
0.592085094025 3.94901139323 0.0
0.831051660929 3.94633985879 0.0
1.14940528892 3.9549521224 0.0
0.44409344258 3.82719938178 0.0
1.49646539728 3.82376850413 0.0
0.683434082651 3.82631713605 0.0
0.92337834777 3.8234861632 0.0
1.16343437877 3.82631615351 0.0
1.90749084149 3.65350700271 0.0
1.8278758005 3.95083911942 0.0
0.37243073327 3.95235211027 0.0
1.29345662549 3.60569899261 0.0
0.813407949226 3.60572380122 0.0
1.29317153636 3.96216077293 0.0
1.367704599 3.96055764734 0.0
1.97071235041 3.96038324024 0.0
0.22928764959 3.96038324024 0.0
2.10610581798 3.66047411138 0.0
0.0938941820177 3.66047411138 0.0
1.67000000105 3.95862953468 0.0
1.74869816704 3.96079301687 0.0
0.531976761939 3.96138655466 0.0
0.451361042387 3.96112774725 0.0
0.771976832233 3.96138887156 0.0
1.88843481911 3.95881554986 0.0
1.61277513709 3.78538823015 0.0
2.13311214501 3.79435403671 0.0
0.0668878549946 3.79435403671 0.0
1.76678797151 3.60286552601 0.0
0.311702446283 3.9611157379 0.0
1.02877762737 3.96159282031 0.0
1.40830122607 3.96143175203 0.0
1.25214210333 3.957355862 0.0
1.59476493393 3.9048774062 0.0
1.56950979124 3.96148017208 0.0
0.890017020275 3.96125792969 0.0
2.03089110475 3.96040268709 0.0
0.169108895255 3.96040268709 0.0
0.939722125942 3.68539157065 0.0
1.41686981874 3.69192854313 0.0
0.0426348006718 3.96101756902 0.0
2.15736519933 3.96101756902 0.0
1.36077308019 3.79177204211 0.0
0.817982383499 3.78962669257 0.0
1.05834720932 3.78780184893 0.0
0.578349529346 3.78781530011 0.0
1.77992711518 3.87652731382 0.0
0.417982153133 3.87594990465 0.0
1.84363633012 3.77741329286 0.0
1.52244994479 3.87704541475 0.0
0.657426528912 3.87734838249 0.0
1.13742651778 3.87734834025 0.0
0.898116026439 3.8800466833 0.0
1.56984259435 3.64465823131 0.0
1.08983016076 3.6446495206 0.0
0.609942357805 3.64483976081 0.0
1.29451769374 3.79627773068 0.0
0.0893439668432 3.96574839433 0.0
2.11065603316 3.96574839433 0.0
2.01422398896 3.86980625824 0.0
0.185776011038 3.86980625824 0.0
0.305957237756 3.87340573745 0.0
1.72977480551 3.68665973332 0.0
1.25418096296 3.69351129461 0.0
0.629999973146 3.96272981435 0.0
1.11000003579 3.96272983221 0.0
0.772975283819 3.69297597031 0.0
1.89089074715 3.86951346173 0.0
0.445448577516 3.69456159386 0.0
1.82621986864 3.89678318705 0.0
2.07135424223 3.81165410377 0.0
0.128645757768 3.81165410377 0.0
0.373320289473 3.89968791662 0.0
1.79000004014 3.96541718891 0.0
0.383302070088 3.78976392323 0.0
0.409457623385 3.96502881851 0.0
1.55531527123 3.78787141386 0.0
1.34861332978 3.89383287415 0.0
0.593245985735 3.89483466551 0.0
0.833245353375 3.89479604398 0.0
1.0732444554 3.8948349405 0.0
0.911896623122 3.59194725763 0.0
0.187580554011 3.70699710313 0.0
2.01241944599 3.70699710313 0.0
1.39201907571 3.59233063354 0.0
2.09635520798 3.90516200201 0.0
0.103644792024 3.90516200201 0.0
1.89086147526 3.72621461413 0.0
1.02102684616 3.70044819701 0.0
1.49813234221 3.70194667869 0.0
0.53965669049 3.70593418829 0.0
1.63719578665 3.69772473547 0.0
0.685447658936 3.70127585046 0.0
1.16541741817 3.70128744764 0.0
0.901649266036 3.76287226775 0.0
0.992351690321 3.90662993531 0.0
1.69131894868 3.90657323657 0.0
1.9699561555 3.91599371502 0.0
0.230043844497 3.91599371502 0.0
1.61980840676 3.85005402918 0.0
2.04685187594 3.90639759008 0.0
0.153148124058 3.90639759008 0.0
0.512139828486 3.90538520837 0.0
1.43057458921 3.90702644399 0.0
0.749149996349 3.90689574876 0.0
[...]
POINT_DATA 1163
VECTORS Displacement float
0.0 0.0 0
0.0 0.0 0
0.00262689588851 0.000574267422638 0
-0.00234937792407 -0.000627909369208 0
0.0 0.0 0
0.0 0.0 0
0.0 0.0 0
0.0 0.0 0
0.0 0.0 0
0.0 0.0 0
0.0 0.0 0
0.0 0.0 0
0.0 0.0 0
0.0 0.0 0
0.0 0.0 0
0.0 0.0 0
0.0 0.0 0
0.0 0.0 0
0.0 0.0 0
0.0 0.0 0
0.0 0.0 0
0.0 0.0 0
0.0 0.0 0
0.0 0.0 0
0.0 0.0 0
0.0 0.0 0
0.0 0.0 0
0.0 0.0 0
0.0 0.0 0
0.0 0.0 0
0.0 0.0 0
0.0 0.0 0
0.0 0.0 0
0.0 0.0 0
0.0 0.0 0
0.00276791714557 -0.00179799085633 0
0.00470426396729 -0.00209850324789 0
0.0059513759187 -0.00183035977951 0
0.00643884944304 -0.00131131976138 0
0.00644996588842 -0.000787287056118 0
0.00614037864685 -0.000310111621642 0
0.00561440749562 4.91268259499e-05 0
0.0050475706102 0.000305687369074 0
0.00445417905911 0.000467094713789 0
0.00390153409662 0.000539441467967 0
0.0034141127998 0.00056975043335 0
0.00299347064087 0.000575571181299 0
0.00262821659373 0.000214385345595 0
0.00262673266761 -0.00012934684193 0
0.00261006029013 -0.000455977673944 0
0.00256970896528 -0.00076856817524 0
0.00249958571504 -0.00107588809991 0
0.00239580078338 -0.00139416985084 0
0.00225048998938 -0.00172171910635 0
0.00207046225212 -0.0020901180429 0
0.00184412613845 -0.00249115751092 0
0.00158911735035 -0.0029548036245 0
0.00127900655001 -0.00347621873952 0
0.000931596368446 -0.00408859990322 0
0.000559205968961 -0.00479919166696 0
0.000133985020373 -0.005614457371 0
-0.000304039719445 -0.00656172462603 0
-0.000799365579797 -0.00764674691306 0
-0.00132079954821 -0.0089106300563 0
-0.00186344744372 -0.0103529798897 0
-0.00242419880471 -0.0120315081296 0
-0.0030438406082 -0.0139666642517 0
-0.00362975751402 -0.0162169521135 0
-0.00416083495836 -0.0188069269977 0
-0.0047257580048 -0.0218781176212 0
-0.00514967372386 -0.025490867448 0
-0.00542388470323 -0.0300392266445 0
-0.00503626513016 -0.036067394939 0
-0.0041871727877 -0.042544374713 0
-0.00334345823493 -0.0484871847486 0
-0.00245220283119 -0.0539089625418 0
-0.00173714017862 -0.0588853501441 0
-0.00111791317185 -0.0633861525643 0
-0.000505467604114 -0.067413514477 0
-6.26459794647e-05 -0.0709948732914 0
0.000279568020847 -0.0741024551352 0
0.00050688658885 -0.0767455065564 0
0.000658636532965 -0.0789195676513 0
0.00072889956045 -0.0806177965759 0
0.000731269082404 -0.0818385156807 0
0.000646550317107 -0.0825782855751 0
0.000468707887333 -0.0828386808834 0
0.000369807192774 -0.0825988606105 0
0.000321664439171 -0.0818872661559 0
0.000337292661197 -0.0806944353741 0
0.000447809838868 -0.0790255143335 0
0.000604649785934 -0.0768767695441 0
0.000870044338566 -0.0742650547253 0
0.00120918035171 -0.0711754688802 0
0.00167250231449 -0.0676296007936 0
0.00222293394181 -0.0636157313026 0
0.00294564507188 -0.0591601093854 0
0.00373114998248 -0.054227290963 0
0.00461737060873 -0.0488347515769 0
0.00558853814173 -0.0429581191104 0
0.00647817983784 -0.0365448053526 0
0.0069743776553 -0.0302754346992 0
0.00676890177312 -0.0255972297303 0
0.00632889438852 -0.0218523477541 0
0.00589472406735 -0.0187276249197 0
0.00532829055594 -0.0160282171538 0
0.00480580257988 -0.0137107373532 0
0.0042960377554 -0.011695982401 0
0.00374591385416 -0.00993449442026 0
0.00321327772634 -0.00841215694481 0
0.00269835377403 -0.00709014640543 0
0.00223832266316 -0.0059357709066 0
0.00178823513837 -0.00493757736137 0
0.00138071303258 -0.00405306188348 0
0.000988231411072 -0.00329111353629 0
0.000625938422422 -0.00263906448263 0
0.0002943356927 -0.0020787951598 0
-8.47183296041e-06 -0.00159321765578 0
-0.0002923673951 -0.00118214089951 0
-0.00053931508787 -0.000829573109903 0
-0.000770956780432 -0.000535175402762 0
-0.000976964618294 -0.000284538670138 0
-0.00116144000923 -8.05451262107e-05 0
-0.00132651085176 8.76498075974e-05 0
-0.00147220569391 0.000222907299893 0
-0.00159773714161 0.000334395845929 0
-0.00171174320217 0.000419419044603 0
-0.00180839955926 0.000485008116462 0
-0.00189564713255 0.000529010649248 0
-0.00196740756499 0.000559994595631 0
-0.00203067463649 0.000576736717551 0
-0.00208299031843 0.000583885539973 0
-0.00212870619797 0.000579388029291 0
-0.00216558620231 0.000568681199284 0
-0.00219652687154 0.000548575827841 0
-0.00222091835325 0.000524978508244 0
-0.00224212663083 0.000495194193815 0
-0.00225955179636 0.000461187170981 0
-0.00227291093267 0.000423829550633 0
-0.00228420324927 0.000382554079342 0
-0.00229303332181 0.000338850590067 0
-0.00230067431315 0.000292426757388 0
-0.0023067018292 0.000243889952524 0
-0.00231236020918 0.000192966928623 0
-0.00231715682401 0.000139952430344 0
-0.00232189876045 8.4768925275e-05 0
-0.00232637018459 2.72597157051e-05 0
-0.00233025646103 -3.20715076181e-05 0
-0.00233426947322 -9.32473660744e-05 0
-0.00233779648916 -0.000156233207996 0
-0.00234124815611 -0.000220937720097 0
-0.00234404979113 -0.000287072846568 0
-0.00234640118489 -0.000354418101282 0
-0.00234809998632 -0.000422655206861 0
-0.00234902020395 -0.000491221434971 0
-0.0023493631863 -0.000559777905299 0
-0.00228063254042 -0.000627927041195 0
-0.00220531023413 -0.000628485540744 0
-0.00212239861397 -0.00062992064457 0
-0.00202986927886 -0.000632735884784 0
-0.00192522203329 -0.000637540505492 0
-0.00180335291924 -0.00064318583165 0
-0.00166259960704 -0.000647740772172 0
-0.00149197578626 -0.000649499807089 0
-0.00128765712056 -0.000639547715016 0
-0.0010388563231 -0.000604467907785 0
-0.000736204194583 -0.00052512676406 0
-0.000397767054769 -0.000363341674614 0
-0.00155570159443 8.50829519267e-05 0
0.00800202722668 -0.0036733278946 0
-0.00234909185011 0.000342342024229 0
-0.00431814018862 -0.000748926650921 0
-0.0082339734188 -0.00857027088591 0
-0.00785413083702 -0.0283433140278 0
0.0034459883533 -0.0376190518924 0
0.0105212141568 -0.0199444653506 0
-0.00190942789213 -0.000184497206852 0
0.00537999197548 -0.00147772326481 0
0.0079350250572 -0.010399073366 0
0.00776369639832 -0.0430716818888 0
-0.00207207660144 0.00039516273741 0
-0.00277382583698 0.000373081914242 0
-0.00268328921113 -0.0511664202046 0
-0.00450572011984 -0.00318754636086 0
-0.00834718678199 -0.0231259886553 0
-0.00199381815075 0.000156156991006 0
0.00549719281766 -0.00412025178956 0
0.00748592261073 -0.0219198342488 0
-0.00223610772449 0.000571877894024 0
0.00351918963126 -0.0595639635118 0
-0.00254373735267 -0.000209357091951 0
-0.00620025069044 -0.0426157674288 0
-0.00404225481448 -0.00881109102087 0
0.00662130113342 -0.0386437118825 0
-0.00221469325702 0.000589045305394 0
0.000117134331695 -0.066482626395 0
-0.00211035513788 -0.00160112714835 0
-0.00340310437605 -0.0585760008412 0
-0.00360102895286 -0.016970759255 0
0.0093591344247 -0.00791530638229 0
0.00409289519671 -0.00791809917775 0
-0.00211360446078 -0.000383147676943 0
0.00396680962456 -0.000626409101315 0
0.00691758169008 -0.00146269981818 0
-0.00138814265619 -0.00019096807684 0
-0.00213950250601 0.000358858730746 0
0.0038601191997 -0.00252185565993 0
-0.00210768987821 -1.59115578657e-06 0
0.00765872634141 -0.0255886626654 0
-0.00291001795665 -0.03054783382 0
-0.00628414835478 -0.00306505190662 0
-0.0092039920504 -0.0155729344315 0
-0.00313278019086 1.07776742804e-05 0
0.00485314041103 -0.0568238703004 0
-0.00215581740058 0.000364256500959 0
-0.00192027305262 -0.00421742156086 0
-0.00450057939495 -0.0306729433208 0
0.00405724847575 -0.0147040379419 0
-0.00173647591242 0.000211077995545 0
-0.00217741136914 0.00051848102926 0
-0.00131471254425 -0.0677776735109 0
-0.00215107398944 -0.000186918069705 0
0.0036010382967 -0.00146251964199 0
0.00309350494859 -0.00492376601644 0
-0.00215944431164 0.000219221476115 0
0.00102098135662 -0.0511890419282 0
-0.00393701095977 -0.00129425118006 0
-0.00610981982374 -0.0439495911414 0
-0.00745033547392 -0.0136233803082 0
-0.00249160412376 0.000507729578395 0
-0.00083995642358 -5.11917071415e-05 0
0.00563061062938 -0.00155441281371 0
-0.0063387453981 -0.00533155162653 0
0.00280055765984 -0.0144678789054 0
-0.00180470211034 -1.05819482382e-06 0
-0.00317027169263 -0.000636640751582 0
0.00728456305097 -0.0108279080238 0
-0.00577951279785 -0.0114827858086 0
0.00365506174428 -0.0270883746633 0
-0.00215590400154 0.000606348028311 0
0.00181350855873 -0.0702062161449 0
-0.00163908859867 -0.000544899584408 0
-0.00291175323178 -0.0536061931319 0
-0.000768304421154 -0.00739196143658 0
0.00674193528915 -0.00253345010759 0
-0.00174328442695 -8.8932807258e-06 0
0.009951682463 -0.0284150951511 0
0.0100136224201 -0.0161730193891 0
0.0039960290383 -0.0496971166549 0
-0.000170142312445 -0.0126101580321 0
-0.00187845605808 -0.000419503343831 0
0.00539674857045 -0.000626283130901 0
-0.00186365438231 0.000228213511145 0
-0.00119936326225 6.23843524705e-05 0
-0.00106160542006 1.74436607602e-05 0
0.00278528923031 -0.0667555677044 0
0.0078947232172 -0.00586053863833 0
-0.00172695427584 9.92726334595e-05 0
-0.00131248467384 -0.0236749709453 0
-0.00200963927411 0.000504927139503 0
-0.00110691312018 -0.00278567076252 0
-0.00189227222914 -0.0417811494221 0
-0.00222468776178 0.000470074967401 0
0.00526508567412 -0.0453289423073 0
-0.00339655098932 -0.000124514970904 0
-0.00636346906946 -0.00674475436823 0
-0.00857694194879 -0.0316712690086 0
0.00733498637031 -0.00361319280587 0
0.00192466950712 -0.01107495896 0
-0.00219319714139 0.00045348967376 0
-0.00301485071591 -0.0125458151267 0
-0.00407590843063 -0.00150876213391 0
-0.00114354202259 -0.0690972640669 0
-7.34000618286e-05 -0.0742254748859 0
0.00247628213988 -0.00357821685825 0
-0.00221136392946 0.000112158901039 0
0.00585150124136 -0.00114597541331 0
-0.000936359386226 -0.000230054515437 0
0.00273163017529 -0.0369599192512 0
0.0010337175263 -0.0202771118998 0
-0.00206979395921 0.000599724231456 0
-0.00216850041057 0.000575217594526 0
-0.00102807720478 -0.00128150455601 0
0.00177187159207 -0.0069254278684 0
0.00953405698376 -0.0297045769525 0
0.00647009428389 -0.00093468401572 0
-0.00160909981227 -0.000388428338722 0
0.00655742419033 -0.00554917185237 0
-0.00221188267823 0.000322576226833 0
0.000768004166454 -0.0169848611353 0
0.000717041739098 -0.0749153171451 0
-0.0017693930921 -0.0628328393467 0
0.00676567782622 -0.0470298011315 0
0.00278206709487 -0.0597048392649 0
-1.8288808613e-05 -0.00520911029056 0
0.0029332516919 -0.00215101654156 0
-0.00221188294139 -6.35447497123e-05 0
-0.00745004697719 -0.00559372486403 0
0.00111957915664 -0.0261605332133 0
-0.00221721374581 -0.00048199863116 0
0.00333906958868 -0.000174310507416 0
-0.00147937916272 -0.0423212463086 0
-0.0053269124086 -0.00243595918912 0
-0.00923964140045 -0.0166583768525 0
-0.00287119651572 0.000319972567273 0
0.00748489790747 -0.0154113456462 0
-0.00217544875435 0.000499231159805 0
0.00927185745312 -0.00845500929131 0
0.00562877774192 -0.052192335575 0
-0.00268489840467 0.000174284755862 0
-0.007470085197 -0.032619303148 0
-0.00401044392437 -0.00552320975391 0
0.00604252945401 -0.0158479609811 0
-0.00747008793325 -0.010146600987 0
-0.00261375654033 -0.000169565515599 0
-0.00463464815058 -0.0403199872224 0
-0.00223164857558 -0.000321832839796 0
0.00316874726921 -0.000881348393329 0
0.0054953705974 -0.00239551467987 0
-0.0019316257657 -1.95632298839e-05 0
-0.00202986870577 0.000286400426342 0
0.00950949071287 -0.0118882057008 0
-0.00572367757023 -0.0230246526043 0
-0.0018028305462 0.000342124738638 0
-0.000340591968745 -0.0323767916115 0
-0.00496725793171 -0.00142367489176 0
0.00628098170666 -0.00660184500547 0
-0.00190157878351 0.000182959037261 0
0.0056759596481 -0.0110737058508 0
0.00645086176261 -0.00148832743351 0
-0.00169276113965 -0.000189696948283 0
-0.00213602916165 0.000440746535874 0
0.00044901912335 -0.0148484608357 0
-0.00198912235419 0.000338230833906 0
-0.00219573795251 0.000518509805317 0
0.00771918737435 -0.035299589182 0
-0.00143936928531 -0.0604552985178 0
-0.00238781471923 0.000492423020118 0
-0.00296711642971 -0.00282119362041 0
-0.00596241696747 -0.0228683481817 0
-0.00468345262353 -0.00262412866238 0
-0.00125107661725 -4.91312847332e-05 0
0.00716951667472 -0.00209119828031 0
-1.97061289063e-05 -0.0116482795912 0
0.00451800344275 -0.00108229624536 0
-0.00203106433458 -0.000272674370452 0
0.00873274655154 -0.00534239148223 0
-0.0086646683505 -0.00989090088863 0
0.00482406472653 -0.0260155657285 0
-0.00250963504108 0.000157321399351 0
0.00896496670044 -0.0184088847753 0
-0.00383609045869 -0.000480785625427 0
-0.0081537499861 -0.0189751299695 0
-0.00704356860614 -0.00524455913394 0
-0.00372063539523 -0.0125845174767 0
0.00709245262257 -0.0293275997814 0
0.00411098329508 -0.00352100946414 0
-0.00209024948457 0.000110785146262 0
0.00908702348862 -0.036295744154 0
0.00446131222707 -0.00181335601665 0
-0.00204156397812 -0.0001138947244 0
-0.0022509488213 0.000599351407225 0
0.00171598011605 -0.063733173216 0
-0.00241071844196 -0.000817217007224 0
-0.00472324649622 -0.0517300969177 0
0.00663824863749 -0.00114819966943 0
-0.00129225329844 -0.000375167851006 0
0.000969699830818 -0.00955078708954 0
-0.00201205846984 -0.000488898134395 0
0.0046066500619 -0.000250816294378 0
0.00179751697277 -0.0727083304381 0
-0.00140514567012 -0.000224626792492 0
-0.000825201946925 -0.0508237313053 0
-0.00183676431497 0.000124420431158 0
-0.00168892198982 0.000185769976191 0
-0.0042092078821 -0.0522196599049 0
0.00693767067968 -0.00389846233196 0
-0.000601854741464 -0.0731894614945 0
0.0102712551721 -0.0129282749111 0
-0.00938693541846 -0.0220252469541 0
-0.00334539508635 5.41318086869e-05 0
0.00297649395078 -0.0654190765762 0
-0.00198760838475 -0.000135237524942 0
-0.00422654934323 -0.045507905753 0
0.00192887400662 -0.0457754760075 0
-0.00605171311061 -0.00421005388155 0
0.00526480404045 -0.00298719568726 0
0.00189888270099 -0.00500792306344 0
-0.00222222916958 0.000220517011826 0
-0.00199259776503 0.00056389218668 0
-0.000666123388888 -0.00189481652939 0
0.00242114530928 -0.0648830874293 0
-0.000108373775187 -0.00394287869997 0
0.000901330748275 -0.00852280206753 0
0.00301986201768 -0.00149363600251 0
-0.00222948819394 -0.000186451547545 0
-0.00222364966303 0.000380438011361 0
0.00973047726355 -0.0216915219637 0
0.00246985212871 -0.00287663715772 0
-0.0022328136435 3.42760273173e-05 0
-0.00232842730053 0.000525432723188 0
0.00330876186536 -0.0512221543152 0
-0.00343985524991 -0.000504336621038 0
-0.00764240274714 -0.0378342638539 0
-0.00634923438538 -0.00949980192753 0
0.00465208343737 -0.00182520562859 0
-0.00056487666851 -1.93366374105e-05 0
0.00540762110503 -0.0196646444572 0
-0.001799540822 -0.00996192157053 0
-0.00219165563227 0.000568340128914 0
-0.00269941447765 -0.0602601198592 0
-0.00346343535588 -0.0018452755161 0
-0.00662133110541 -0.0172973526081 0
-0.00245971466934 0.000534824186072 0
-0.000444761702922 -8.63590123034e-05 0
0.00343564281126 -0.000789339151193 0
-0.00067720551416 -3.48274388138e-06 0
0.00456478418665 -0.00604732848426 0
-0.00209173238056 0.000276936682557 0
0.00562011191077 -0.0354249140516 0
-0.000194481850218 -0.0571553772093 0
-0.00259434063012 -0.00609402434067 0
-0.00204892250377 0.000301620471635 0
0.00435579424226 -0.0596988640759 0
-0.00220951553666 0.000153016577591 0
-0.00530856563923 -0.0373756587472 0
0.0059415412571 -0.00113032812654 0
-0.00178852173435 -0.000284128944518 0
0.000543584611655 -0.0276025035186 0
0.00483062072699 -0.0542966105587 0
0.00711409399923 -0.00204315653976 0
-0.00154202346132 -7.66260908932e-05 0
-0.0021221007355 0.000600982174367 0
0.0014710139007 -0.074340772441 0
-0.00125928633231 -0.000519622100003 0
0.000853798956637 -0.0077211356326 0
-0.00107323286494 -0.0560025516058 0
-0.00571690553126 -0.030768960836 0
0.00889643059931 -0.0318561213128 0
0.00606409231746 -0.000595170487 0
-0.0017174848031 -0.000490395439818 0
4.89173044738e-05 -0.0323971933097 0
0.00368725605005 -0.00551831320255 0
0.009551838288 -0.0118027533361 0
-0.00394383423403 -0.00498472555406 0
-0.00218034831851 -0.0210110297757 0
-0.00160872065868 -0.000315293567269 0
-0.00585909487336 -0.00275600923803 0
-0.00120720065464 3.75831269966e-05 0
-0.00520648769098 -0.00165843506551 0
-0.00195252492061 0.000312366289751 0
0.00689340603498 -0.0482602989887 0
-0.000970150347783 -2.59682068996e-05 0
-0.000503249320104 -0.000236619309385 0
0.00358985206485 -0.0010146254211 0
0.00315585843744 -0.000514813478544 0
-0.00224375214563 -0.000406646457667 0
0.00604759920135 -0.00845202612715 0
-0.00339099262318 -0.00802976748331 0
-0.00264224070584 -0.000737134978642 0
-0.00211138677037 -0.000522950095656 0
0.00398528942138 -2.54331110848e-05 0
-0.00133857114256 -0.000107408236259 0
0.00753915938481 -0.00320504558574 0
-0.00140627418726 0.000106028503763 0
-0.00484426402786 -0.00434631591103 0
0.00294985888932 -0.00889184498579 0
-0.00256907156816 0.000394334231101 0
-0.00207199224073 0.000347880451575 0
0.00190049192945 -0.041426062186 0
-0.00863042674881 -0.0119486840519 0
0.00119701997695 -0.0538121850838 0
0.00212382804718 -0.0125589445627 0
-0.000858497088943 -0.0661627007152 0
0.00606114178582 -0.00193113786469 0
-0.00182352389092 -9.46642655548e-05 0
0.00480240791638 -0.0048064630087 0
-0.00659251983917 -0.035792106375 0
0.00265545054899 -0.0199423758016 0
-0.00463935301789 -0.00122373262825 0
-0.00433079782586 -0.00209755039907 0
-0.00785137032283 -0.0174452316837 0
-0.00260337930635 0.000486912244062 0
-0.000835414333507 -0.0508194667241 0
0.000414862271029 -0.0784515058195 0
-0.000420919025147 -0.0688099319289 0
0.00782438184155 -0.00508608762564 0
0.00381708443737 -0.00102607120547 0
-0.00213010542212 -0.000284052556871 0
-0.00182064271705 0.000438934157108 0
-0.00160464841201 0.000187101302295 0
0.0011579295898 -0.0269481353019 0
0.000598303577205 -0.0392673807735 0
-0.00116619492048 -0.000161317564236 0
0.0067053929293 -0.00143118132327 0
0.0104570329964 -0.0223492851283 0
0.00453050387616 -0.00067543824935 0
-0.00202700777451 -0.000378529938928 0
0.00769009608296 -0.00730485076775 0
0.00140828142558 -0.0720728803844 0
0.0002189141546 -0.00286560899996 0
-0.00376304274238 -0.000244773366571 0
-0.00896463803609 -0.0265977574159 0
-7.6059155331e-05 -0.0124459410112 0
-0.0053507957248 -0.0489822968909 0
-0.00221508681261 0.000479003990068 0
-0.00225591525293 -0.000536138931576 0
0.00312691141195 9.16939324676e-05 0
-0.00326989118885 -0.00401330604495 0
-0.00674386233719 -0.0281705026257 0
-0.00247403792693 0.000367331502457 0
-0.00191428152911 7.65436113368e-05 0
0.00871829043645 -0.0060774206458 0
0.00572961046665 -0.00315920895114 0
0.00372401996676 -0.00185948109838 0
-0.00212838948733 -0.000106977866259 0
0.00365590291361 -0.00971965418009 0
-0.000984529600241 -0.0172407072592 0
-0.00218949230293 0.000544700411621 0
0.0102712654745 -0.0259350855126 0
0.00663715111547 -0.0450982271003 0
-0.00304141906935 0.000177686823163 0
-0.00551734665683 -0.00501808479241 0
-0.00872743355862 -0.0274329754196 0
-0.00213474179546 0.000443232260256 0
-0.0059386299488 -0.0120715070414 0
-0.00234889860287 0.000445024797512 0
0.00193855183989 -0.056499692824 0
-0.0023554689139 0.000565734052332 0
-0.00320052230453 -0.000867750155493 0
0.00468148907299 -0.00286352527267 0
0.00360155167267 -0.0437454595782 0
-0.00203010397716 3.75047512713e-05 0
-0.00396756170262 -0.000579395603248 0
-0.00753313446239 -0.00889053384526 0
-0.0080504029598 -0.0332922782874 0
0.00627625748555 -0.0445997803419 0
0.00817099195674 -0.0386984046527 0
-0.00218139597813 0.000550753962078 0
-0.00193709376872 -0.00227122486574 0
-0.00381606134453 -0.0212331579137 0
-7.67549014839e-05 -0.0770109306998 0
-0.000353335920634 -0.0740388242864 0
0.00461092596873 -0.0525555329979 0
-0.00298592781077 -0.000109728886747 0
-0.0076607905391 -0.0367247355922 0
-0.00507674391158 -0.00750906116037 0
0.00152636332586 -0.00434825026569 0
-0.00225993244697 0.000170952560014 0
-0.00216171431008 0.000416292176793 0
0.00996715688999 -0.0225972144385 0
0.00121592896509 -0.0693984759696 0
-0.00320238134887 -0.0569504979199 0
0.00869720663869 -0.0188814221128 0
0.000977026739871 -0.00589546476746 0
-0.00148060031523 -9.33249303181e-06 0
-6.14448316601e-06 -0.0458932044183 0
0.00739914531433 -0.00322117370967 0
-0.00168565503383 6.05405644646e-05 0