# vtk DataFile Version 2.0
Generated with Solid Solver
ASCII
DATASET UNSTRUCTURED_GRID
POINTS 1163 float 
0.0 3.5 0.0
2.2 3.5 0.0
2.2 4.0 0.0
0.0 4.0 0.0
0.0687499999999 3.5 0.0
0.1375 3.5 0.0
0.20625 3.5 0.0
0.275 3.5 0.0
0.343749999999 3.5 0.0
0.412499999999 3.5 0.0
0.481249999999 3.5 0.0
0.549999999999 3.5 0.0
0.618749999998 3.5 0.0
0.687499999998 3.5 0.0
0.756249999998 3.5 0.0
0.824999999998 3.5 0.0
0.893749999998 3.5 0.0
0.962499999997 3.5 0.0
1.03125 3.5 0.0
1.1 3.5 0.0
1.16875 3.5 0.0
1.2375 3.5 0.0
1.30625 3.5 0.0
1.375 3.5 0.0
1.44375 3.5 0.0
1.5125 3.5 0.0
1.58125 3.5 0.0
1.65 3.5 0.0
1.71875 3.5 0.0
1.7875 3.5 0.0
1.85625 3.5 0.0
1.925 3.5 0.0
1.99375 3.5 0.0
2.0625 3.5 0.0
2.13125 3.5 0.0
2.2 3.56430812579 0.0
2.2 3.6227083524 0.0
2.2 3.67574343203 0.0
2.2 3.72390623714 0.0
2.2 3.76764438299 0.0
2.2 3.80736436348 0.0
2.2 3.84343531161 0.0
2.2 3.87619247056 0.0
2.2 3.90594026646 0.0
2.2 3.93295517223 0.0
2.2 3.9574882542 0.0
2.2 3.97976750927 0.0
2.18000003888 4.0 0.0
2.15999995974 4.0 0.0
2.13999995594 4.0 0.0
2.12000003893 4.0 0.0
2.0999999813 4.0 0.0
2.07999993507 4.0 0.0
2.06000001965 4.0 0.0
2.04000002354 4.0 0.0
2.01999993997 4.0 0.0
1.99999999426 4.0 0.0
1.98000004623 4.0 0.0
1.95999996625 4.0 0.0
1.93999996787 4.0 0.0
1.92000005069 4.0 0.0
1.90000001292 4.0 0.0
1.87999994967 4.0 0.0
1.86000003245 4.0 0.0
1.84000003166 4.0 0.0
1.81999995194 4.0 0.0
1.80000002065 4.0 0.0
1.78000005962 4.0 0.0
1.75999997703 4.0 0.0
1.73999998149 4.0 0.0
1.72000006236 4.0 0.0
1.70000000651 4.0 0.0
1.67999995967 4.0 0.0
1.66000004242 4.0 0.0
1.64000004304 4.0 0.0
1.61999996152 4.0 0.0
1.6000000096 4.0 0.0
1.58000006667 4.0 0.0
1.55999998704 4.0 0.0
1.53999998381 4.0 0.0
1.52000006764 4.0 0.0
1.5000000299 4.0 0.0
1.47999996242 4.0 0.0
1.46000004337 4.0 0.0
1.4400000454 4.0 0.0
1.41999996386 4.0 0.0
1.40000002834 4.0 0.0
1.38000006734 4.0 0.0
1.35999998576 4.0 0.0
1.33999998537 4.0 0.0
1.32000006658 4.0 0.0
1.30000001585 4.0 0.0
1.27999996279 4.0 0.0
1.26000004759 4.0 0.0
1.24000004493 4.0 0.0
1.2199999616 4.0 0.0
1.20000000906 4.0 0.0
1.18000006792 4.0 0.0
1.15999998616 4.0 0.0
1.13999999119 4.0 0.0
1.12000007157 4.0 0.0
1.1 4.0 0.0
1.07999992843 4.0 0.0
1.06000000881 4.0 0.0
1.04000001384 4.0 0.0
1.01999993209 4.0 0.0
0.999999990948 4.0 0.0
0.98000003841 4.0 0.0
0.959999955072 4.0 0.0
0.939999952416 4.0 0.0
0.920000037214 4.0 0.0
0.899999984154 4.0 0.0
0.879999933427 4.0 0.0
0.860000014636 4.0 0.0
0.840000014246 4.0 0.0
0.819999932662 4.0 0.0
0.79999997166 4.0 0.0
0.780000036145 4.0 0.0
0.759999954604 4.0 0.0
0.73999995663 4.0 0.0
0.72000003758 4.0 0.0
0.699999970103 4.0 0.0
0.679999932361 4.0 0.0
0.660000016189 4.0 0.0
0.640000012962 4.0 0.0
0.61999993333 4.0 0.0
0.599999990406 4.0 0.0
0.58000003848 4.0 0.0
0.559999956964 4.0 0.0
0.539999957581 4.0 0.0
0.520000040329 4.0 0.0
0.499999993489 4.0 0.0
0.479999937647 4.0 0.0
0.460000018512 4.0 0.0
0.440000022972 4.0 0.0
0.419999940378 4.0 0.0
0.399999979352 4.0 0.0
0.380000048063 4.0 0.0
0.359999968347 4.0 0.0
0.339999967553 4.0 0.0
0.320000050328 4.0 0.0
0.299999987077 4.0 0.0
0.279999949312 4.0 0.0
0.260000032129 4.0 0.0
0.240000033752 4.0 0.0
0.219999953776 4.0 0.0
0.200000005737 4.0 0.0
0.180000060031 4.0 0.0
0.159999976465 4.0 0.0
0.139999980354 4.0 0.0
0.120000064926 4.0 0.0
0.100000018697 4.0 0.0
0.0799999610675 4.0 0.0
0.0600000440571 4.0 0.0
0.0400000402596 4.0 0.0
0.0199999611169 4.0 0.0
0.0 3.97976750927 0.0
0.0 3.9574882542 0.0
0.0 3.93295517223 0.0
0.0 3.90594026646 0.0
0.0 3.87619247056 0.0
0.0 3.84343531161 0.0
0.0 3.80736436348 0.0
0.0 3.76764438299 0.0
0.0 3.72390623714 0.0
0.0 3.67574343203 0.0
0.0 3.6227083524 0.0
0.0 3.56430812579 0.0
0.249757963562 3.75212589829 0.0
1.94999996706 3.74954522137 0.0
0.488710285893 3.75947702441 0.0
0.726520490699 3.7655965719 0.0
0.967283134849 3.7597072979 0.0
1.20619032017 3.75831098673 0.0
1.45842774915 3.76733088374 0.0
1.69012076678 3.7622332834 0.0
0.130754044069 3.86878249167 0.0
2.06924595593 3.86878249167 0.0
1.8299999918 3.84622455633 0.0
1.56816462369 3.85034872999 0.0
0.369913859351 3.84868157925 0.0
0.608733620231 3.84706187144 0.0
1.33069778866 3.84790908234 0.0
0.84323446252 3.84762979148 0.0
1.08873170817 3.84705870913 0.0
0.250539365135 3.87785524304 0.0
1.94967747948 3.87849609822 0.0
1.73218750075 3.8916046151 0.0
0.468661874066 3.89189322974 0.0
1.47574192429 3.89639134117 0.0
0.704258110321 3.8963912684 0.0
1.18331258449 3.8976320365 0.0
0.949999953744 3.89208018478 0.0
1.64795374468 3.91749779939 0.0
0.548928463645 3.91905583847 0.0
1.38619509199 3.91928594438 0.0
0.788926872841 3.91906062101 0.0
1.27071160784 3.91777932845 0.0
1.02999997296 3.91685174433 0.0
1.81733541416 3.69950870754 0.0
1.86999999106 3.91823503401 0.0
0.071252620538 3.93011431841 0.0
2.12874737946 3.93011431841 0.0
2.07400690796 3.74293885365 0.0
0.125993092043 3.74293885365 0.0
0.32995676804 3.92118147353 0.0
2.00999996712 3.92542383197 0.0
0.190000032884 3.92542383197 0.0
1.56698738743 3.72218882919 0.0
1.33000000474 3.72531695685 0.0
0.848014510843 3.71986098938 0.0
1.09024665585 3.72285801424 0.0
0.610276609989 3.72290563624 0.0
1.54999998543 3.92414142844 0.0
0.629999973146 3.92414137652 0.0
0.869999974031 3.92414141814 0.0
1.11000003579 3.92414141267 0.0
1.79030638642 3.92649353654 0.0
0.370434802927 3.72513294336 0.0
0.410903135411 3.92892991244 0.0
1.33000002597 3.93737911571 0.0
0.129927648482 3.94112154503 0.0
2.07007235152 3.94112154503 0.0
1.93000000928 3.93875927586 0.0
0.26999999072 3.93875927586 0.0
1.40966706061 3.83880068991 0.0
0.770332962441 3.83880062149 0.0
1.24904900022 3.84293377683 0.0
1.01033287484 3.83880060723 0.0
0.530342681434 3.83880307444 0.0
0.189895273961 3.63486992823 0.0
2.00989835291 3.62845703161 0.0
0.998888153878 3.61665036233 0.0
1.47894673873 3.61675180774 0.0
0.51733910646 3.62937665489 0.0
0.705112628302 3.618743723 0.0
1.66672137035 3.63168728155 0.0
1.18508242495 3.61871739348 0.0
1.71000003443 3.94408608591 0.0
0.489999965568 3.94463856597 0.0
1.44983363802 3.94422347836 0.0
0.729999997105 3.94465012565 0.0
1.21016639734 3.94422345842 0.0
0.928621800545 3.94440037102 0.0
2.00626203014 3.81543543551 0.0
0.193627962274 3.81528928332 0.0
1.66628164144 3.83559795895 0.0
1.75661718781 3.81065958113 0.0
1.61143779865 3.94859227761 0.0
0.991673865748 3.95161238438 0.0
0.0604617941233 3.86281264864 0.0
2.13953820588 3.86281264865 0.0
0.300965570716 3.8114148258 0.0
0.2970894797 3.66361086085 0.0
0.398842167194 3.60449226805 0.0
1.51000004877 3.95218393067 0.0
1.90135619383 3.81213273629 0.0
0.669405272842 3.95495208979 0.0
1.07142780558 3.94866325309 0.0
0.592085094025 3.94901139323 0.0
0.831051660929 3.94633985879 0.0
1.14940528892 3.9549521224 0.0
0.44409344258 3.82719938178 0.0
1.49646539728 3.82376850413 0.0
0.683434082651 3.82631713605 0.0
0.92337834777 3.8234861632 0.0
1.16343437877 3.82631615351 0.0
1.90749084149 3.65350700271 0.0
1.8278758005 3.95083911942 0.0
0.37243073327 3.95235211027 0.0
1.29345662549 3.60569899261 0.0
0.813407949226 3.60572380122 0.0
1.29317153636 3.96216077293 0.0
1.367704599 3.96055764734 0.0
1.97071235041 3.96038324024 0.0
0.22928764959 3.96038324024 0.0
2.10610581798 3.66047411138 0.0
0.0938941820177 3.66047411138 0.0
1.67000000105 3.95862953468 0.0
1.74869816704 3.96079301687 0.0
0.531976761939 3.96138655466 0.0
0.451361042387 3.96112774725 0.0
0.771976832233 3.96138887156 0.0
1.88843481911 3.95881554986 0.0
1.61277513709 3.78538823015 0.0
2.13311214501 3.79435403671 0.0
0.0668878549946 3.79435403671 0.0
1.76678797151 3.60286552601 0.0
0.311702446283 3.9611157379 0.0
1.02877762737 3.96159282031 0.0
1.40830122607 3.96143175203 0.0
1.25214210333 3.957355862 0.0
1.59476493393 3.9048774062 0.0
1.56950979124 3.96148017208 0.0
0.890017020275 3.96125792969 0.0
2.03089110475 3.96040268709 0.0
0.169108895255 3.96040268709 0.0
0.939722125942 3.68539157065 0.0
1.41686981874 3.69192854313 0.0
0.0426348006718 3.96101756902 0.0
2.15736519933 3.96101756902 0.0
1.36077308019 3.79177204211 0.0
0.817982383499 3.78962669257 0.0
1.05834720932 3.78780184893 0.0
0.578349529346 3.78781530011 0.0
1.77992711518 3.87652731382 0.0
0.417982153133 3.87594990465 0.0
1.84363633012 3.77741329286 0.0
1.52244994479 3.87704541475 0.0
0.657426528912 3.87734838249 0.0
1.13742651778 3.87734834025 0.0
0.898116026439 3.8800466833 0.0
1.56984259435 3.64465823131 0.0
1.08983016076 3.6446495206 0.0
0.609942357805 3.64483976081 0.0
1.29451769374 3.79627773068 0.0
0.0893439668432 3.96574839433 0.0
2.11065603316 3.96574839433 0.0
2.01422398896 3.86980625824 0.0
0.185776011038 3.86980625824 0.0
0.305957237756 3.87340573745 0.0
1.72977480551 3.68665973332 0.0
1.25418096296 3.69351129461 0.0
0.629999973146 3.96272981435 0.0
1.11000003579 3.96272983221 0.0
0.772975283819 3.69297597031 0.0
1.89089074715 3.86951346173 0.0
0.445448577516 3.69456159386 0.0
1.82621986864 3.89678318705 0.0
2.07135424223 3.81165410377 0.0
0.128645757768 3.81165410377 0.0
0.373320289473 3.89968791662 0.0
1.79000004014 3.96541718891 0.0
0.383302070088 3.78976392323 0.0
0.409457623385 3.96502881851 0.0
1.55531527123 3.78787141386 0.0
1.34861332978 3.89383287415 0.0
0.593245985735 3.89483466551 0.0
0.833245353375 3.89479604398 0.0
1.0732444554 3.8948349405 0.0
0.911896623122 3.59194725763 0.0
0.187580554011 3.70699710313 0.0
2.01241944599 3.70699710313 0.0
1.39201907571 3.59233063354 0.0
2.09635520798 3.90516200201 0.0
0.103644792024 3.90516200201 0.0
1.89086147526 3.72621461413 0.0
1.02102684616 3.70044819701 0.0
1.49813234221 3.70194667869 0.0
0.53965669049 3.70593418829 0.0
1.63719578665 3.69772473547 0.0
0.685447658936 3.70127585046 0.0
1.16541741817 3.70128744764 0.0
0.901649266036 3.76287226775 0.0
0.992351690321 3.90662993531 0.0
1.69131894868 3.90657323657 0.0
1.9699561555 3.91599371502 0.0
0.230043844497 3.91599371502 0.0
1.61980840676 3.85005402918 0.0
2.04685187594 3.90639759008 0.0
0.153148124058 3.90639759008 0.0
0.512139828486 3.90538520837 0.0
1.43057458921 3.90702644399 0.0
0.749149996349 3.90689574876 0.0
[...]
POINT_DATA 1163
VECTORS Displacement float
0.0 0.0 0
0.0 0.0 0
0.00899686730915 -0.00191865031397 0
-0.0115203821087 -0.00147570024452 0
0.0 0.0 0
0.0 0.0 0
0.0 0.0 0
0.0 0.0 0
0.0 0.0 0
0.0 0.0 0
0.0 0.0 0
0.0 0.0 0
0.0 0.0 0
0.0 0.0 0
0.0 0.0 0
0.0 0.0 0
0.0 0.0 0
0.0 0.0 0
0.0 0.0 0
0.0 0.0 0
0.0 0.0 0
0.0 0.0 0
0.0 0.0 0
0.0 0.0 0
0.0 0.0 0
0.0 0.0 0
0.0 0.0 0
0.0 0.0 0
0.0 0.0 0
0.0 0.0 0
0.0 0.0 0
0.0 0.0 0
0.0 0.0 0
0.0 0.0 0
0.0 0.0 0
0.00195566138359 -0.00160169777913 0
0.00354929855289 -0.00219150864867 0
0.0048785169779 -0.00238037198068 0
0.00586231208868 -0.00236998182432 0
0.00659371218672 -0.00227990034315 0
0.00714309624475 -0.00216695801234 0
0.00754865978216 -0.00207375654351 0
0.00788190916592 -0.00200156510897 0
0.00815269944512 -0.00195358434384 0
0.00839010068661 -0.00193083672399 0
0.00860686867249 -0.00192084818287 0
0.00880900022006 -0.00191837630842 0
0.00899715113349 -0.00173201380984 0
0.00899614464687 -0.00154073965877 0
0.00899045327858 -0.00134541524095 0
0.00897774888751 -0.00114738128479 0
0.00895687791663 -0.000949695111943 0
0.00892731058992 -0.000756657399909 0
0.00888696623825 -0.000567912377079 0
0.00883817766641 -0.000391225341927 0
0.00877763127038 -0.0002240332273 0
0.00870990340289 -7.34341512907e-05 0
0.0086273799603 6.2374066959e-05 0
0.00853471042111 0.000175832319314 0
0.00843367735486 0.000265170188357 0
0.00831665589949 0.000331892130318 0
0.00819124845112 0.000367512102042 0
0.00804509248165 0.000374384913362 0
0.00788707145289 0.000342086794792 0
0.00770905053149 0.000274671986882 0
0.00751540589896 0.000156866967637 0
0.00729057699701 -1.09438178576e-05 0
0.00704865514429 -0.00023834019994 0
0.006794819235 -0.000534254390609 0
0.00650158284162 -0.000889562955772 0
0.00618659610162 -0.00133827387387 0
0.00582648892448 -0.00187401795041 0
0.00545530471584 -0.00251922871131 0
0.00502894312423 -0.00327485299929 0
0.00457376797052 -0.00417551706399 0
0.00407863959 -0.00521974558523 0
0.0035827742221 -0.00643023938094 0
0.00304715362527 -0.00785196041555 0
0.00243197330685 -0.00946113883253 0
0.00182427490338 -0.0113184915827 0
0.00117266766213 -0.0134554582815 0
0.000519093258133 -0.0159071984476 0
-0.000162306910227 -0.0186990481931 0
-0.000858858899487 -0.021902951729 0
-0.00158710896393 -0.0256275778473 0
-0.00220429431076 -0.0298863830026 0
-0.00293241241193 -0.0349272101017 0
-0.00358944937392 -0.0400925014235 0
-0.0019195235826 -0.0505593155116 0
-1.63781448732e-05 -0.0601432889772 0
0.00204041443688 -0.0691064700766 0
0.00374060262777 -0.0777776314577 0
0.00525203599597 -0.0858806071285 0
0.0065147736991 -0.0935690364541 0
0.00761554302012 -0.100786137165 0
0.00838201277413 -0.107578847299 0
0.00895104472986 -0.11392793752 0
0.00924834102626 -0.119861250028 0
0.0092956871708 -0.125318284096 0
0.0090904428008 -0.130310030101 0
0.00867480342599 -0.134808730596 0
0.00803158977775 -0.138820209115 0
0.00719659758959 -0.142323938567 0
0.00622610824376 -0.145301021876 0
0.00508104045804 -0.147757262245 0
0.00379343088081 -0.149673058214 0
0.00241818372427 -0.151039564359 0
0.000951716563372 -0.151836211983 0
-0.000608206853033 -0.152072236838 0
-0.00230844614736 -0.151833670828 0
-0.00385004664355 -0.15098297896 0
-0.00525832044742 -0.149577245884 0
-0.00655340532379 -0.147622777532 0
-0.00774666154172 -0.145127017039 0
-0.00874256938109 -0.142107670829 0
-0.00958048382214 -0.138565027505 0
-0.0102268397003 -0.134513925695 0
-0.0106729552284 -0.129966871376 0
-0.0109156622481 -0.124921792382 0
-0.0109292797569 -0.119392216479 0
-0.0106637523543 -0.113473286465 0
-0.0102042001902 -0.107059793609 0
-0.00947059591061 -0.100184328261 0
-0.00845114802299 -0.0928836141451 0
-0.00717136597724 -0.0851443689508 0
-0.00574171044522 -0.0769638845864 0
-0.00400185985204 -0.0682009979508 0
-0.00239120075648 -0.0589691756859 0
-0.000619620794931 -0.0491378777785 0
-0.000230916440381 -0.0417650762539 0
-0.00051317718698 -0.0356365721467 0
-0.000958415322979 -0.0305987859628 0
-0.00167146697714 -0.026267052922 0
-0.00235067219459 -0.0226166282144 0
-0.00310173005804 -0.0194454374899 0
-0.00379767937814 -0.016699633567 0
-0.0045418042695 -0.0143104415956 0
-0.00530553172748 -0.0122630613598 0
-0.00599367357377 -0.0104903527567 0
-0.006658594377 -0.00898422091616 0
-0.00729401833748 -0.0076827096924 0
-0.00789652087043 -0.00658751815333 0
-0.00843308385987 -0.00565546649175 0
-0.00895306213061 -0.00488601758477 0
-0.00940840162697 -0.00424490833336 0
-0.00983393523654 -0.00372504228736 0
-0.0102149712011 -0.00331824635611 0
-0.0105296358844 -0.00298459266782 0
-0.0108109202765 -0.0027303297921 0
-0.0110360384062 -0.00252006525135 0
-0.0112197328454 -0.00236346696856 0
-0.0113521125928 -0.00222217374691 0
-0.0114430138949 -0.00209758815963 0
-0.0114963921927 -0.00196938706893 0
-0.0115191181875 -0.00182536791063 0
-0.011521921428 -0.00166084755397 0
-0.0117112233387 -0.00147419005313 0
-0.01194285764 -0.00148284449623 0
-0.0122271064605 -0.00152349827204 0
-0.0125555772817 -0.00161879888181 0
-0.012890794309 -0.00182730503273 0
-0.0131353861095 -0.00215316305242 0
-0.0132661138278 -0.00259962381078 0
-0.0130349893538 -0.0031799884888 0
-0.0123018774187 -0.0037794760171 0
-0.0108397109185 -0.0042907383964 0
-0.00826865763604 -0.00434948767847 0
-0.00473625373146 -0.00343270221293 0
-0.0151444043014 -0.00400575341258 0
0.00718040191174 -2.56429419983e-05 0
-0.0215146439044 -0.0210796336181 0
-0.0182711225398 -0.0563550132471 0
4.00000305501e-06 -0.0702978020065 0
0.0174239658762 -0.053352806242 0
0.019111533578 -0.0181517911435 0
0.0117748720948 -0.00241430850694 0
-0.0132253942353 -0.00232932130883 0
0.00788623732481 -0.000638250073387 0
0.00890672557321 0.000173795848737 0
0.0133818149254 -0.00850136040676 0
-0.0167401384004 -0.0107264003934 0
-0.022310927839 -0.051144449886 0
0.0204050497998 -0.0470881676394 0
-0.0107293900694 -0.0927335657677 0
0.0101055994324 -0.091586648832 0
-0.0136556256667 -0.00422467839276 0
0.00817958596218 0.000258637900652 0
0.00914607484481 -0.000916323591225 0
-0.016968936395 -0.0234693386633 0
0.01319810347 -0.019054077772 0
-0.0182289508806 -0.0836937607037 0
0.0150511403344 -0.0916426693142 0
-0.00163916256383 -0.113288069118 0
0.00877193273601 -0.00356965339604 0
-0.0170734306962 -0.042812132311 0
0.0142122969257 -0.0385058549133 0
-0.0134131571881 -0.107389150105 0
0.0162273798917 -0.0743417820799 0
0.00493766628234 -0.119403289741 0
0.00817594050641 -0.00054336417497 0
0.00830319104976 0.000451429039339 0
-0.0122725752456 -0.00203120384291 0
0.00836847219749 -0.00123038921934 0
0.0063451943728 -0.000729421331967 0
-0.0132382192718 -0.002350779724 0
-0.0122118166586 -0.00791304702184 0
0.00829782535788 -0.000100938969622 0
-0.0121117710416 -0.00290683894393 0
0.0151677057169 -0.007451239926 0
0.0200529607214 -0.0308144266976 0
-0.00932913424465 -0.0552794238513 0
0.00959896372099 -0.0551614327859 0
-0.0209633220962 -0.0327892158997 0
0.00907107535192 -0.0100588912773 0
-0.0177948225624 -0.0689625683336 0
-0.00798281709751 -0.120101002178 0
0.0103947473265 -0.112758443101 0
0.00825209904003 2.21165583697e-05 0
-0.017752354053 -0.00895351536996 0
-0.0121709059316 -0.0152116162742 0
0.0138052877258 -0.0581112774104 0
-0.0119683757029 -0.00232230829356 0
0.00843083462078 -0.000637576217559 0
0.00828489831596 0.000371060782419 0
-0.0113598803067 -0.00493249445403 0
0.0192862092811 -0.0291436685659 0
-0.0160440802253 -0.0811873631958 0
0.0193331745861 -0.0646939943578 0
0.00370775154009 -0.0944456386391 0
-0.0218737648771 -0.0331009599363 0
-0.00998763352508 -0.00207383114426 0
0.00405888128884 -0.000330129939066 0
0.00175471639968 -0.0288485520102 0
0.0125893880233 -0.00811251621764 0
-0.0154343401811 -0.0129868354169 0
-0.0124939854593 -0.0224231726541 0
0.00927945330604 -0.0025046592384 0
0.0107661322487 -0.024000675677 0
0.00771302125685 -0.00140236407928 0
-0.0116567432486 -0.0281466502654 0
0.00834504089278 -0.0236220401008 0
-0.014712612475 -0.102039907717 0
0.0133294225215 -0.0972231857338 0
-0.003275307494 -0.131070086734 0
0.00756679291184 -0.00015258655812 0
-0.0142667524561 -0.00293967673525 0
0.011509307953 -0.00301360645931 0
0.0101146596616 -0.000762179883125 0
0.00711489617104 -0.00546982712447 0
0.00176611607224 -0.133677317466 0
-0.0131409420591 -0.00216171798157 0
0.00778022505648 -0.00137599801436 0
-0.0161267283382 -0.0061375839293 0
-0.0135938814157 -0.00441164232509 0
-0.0118567672699 -0.00586907548996 0
0.00661664685626 -0.0143986105988 0
0.00823390115469 0.000228385584762 0
-0.0146003265962 -0.087304691754 0
0.0075504694597 -0.126167299834 0
-0.0144829675537 -0.0595554244798 0
-0.0102875129568 -0.122767230556 0
0.0112523090584 -0.114800440846 0
-0.0197787926384 -0.0183599623256 0
0.0168407083939 -0.0153683542293 0
-0.0208279071411 -0.0632903029896 0
-0.00398856147262 -0.0900018460473 0
0.0154291671439 -0.0761197198164 0
0.00569477383515 -0.000277189308938 0
0.00800582942052 0.000315516345202 0
-0.00988057148103 -0.0112319859453 0
0.0124646352739 -0.0162458095317 0
-0.00756861782574 -0.0237980122805 0
0.0109985539538 -0.0748394213175 0
0.00866668058157 -0.0459921722176 0
0.00840552768654 0.00016275081808 0
-0.0108406717113 -0.00374476478003 0
0.00452113099616 -0.000901092341177 0
-0.0103720561515 -0.00213835485081 0
0.00694403492218 -0.00268225834852 0
0.00745653621545 -0.000583198688945 0
-0.0100446504403 -0.0390113387383 0
-0.00862077386415 -0.0209098181649 0
-0.0126456091731 -0.116659979933 0
0.00816668237604 0.000449813554518 0
0.0138861799868 -0.00548632663312 0
0.00702372513517 -0.00134289481028 0
-0.0134734108473 -0.00242366662813 0
0.00597479384729 -0.00103325825277 0
-0.00982192221194 -0.00692087076141 0
0.0045439098149 -0.135046728782 0
0.00655298874957 -0.0327525304274 0
0.0124121357345 -0.0879625399569 0
0.00992933008093 -0.00649624094084 0
0.00592654215497 -0.00840597460959 0
-0.00615077420045 -0.134750641293 0
0.00852401079808 -0.00028305170618 0
-0.0113913910249 -0.00269525062941 0
-0.00206390252904 -0.0480754994273 0
0.0183017576006 -0.0176264551168 0
-0.0118959528508 -0.00184604833186 0
0.00863678986027 -0.00151504751126 0
0.0211811457723 -0.0344021192492 0
-0.012670768592 -0.0729900175276 0
0.0077718027165 -0.0759714732798 0
-0.0229181146209 -0.0370698283037 0
0.00907233483083 -0.000177235417092 0
-0.0166144420284 -0.0158380157703 0
0.0087389959259 -4.28732148973e-05 0
0.0131904812146 -0.0129156591642 0
-0.0205109896672 -0.0680903910946 0
0.0131235507775 -0.0943057403797 0
-0.00611629426661 -0.107473706088 0
0.0123837367813 -0.00552477526915 0
0.00747228161501 -0.0342550353623 0
-0.0164263445902 -0.0210636591445 0
0.0208841499006 -0.0470785235926 0
-0.0117448838741 -0.00211549460782 0
0.00865735311924 -0.00104560595662 0
0.00797951822973 -0.000153042420313 0
-0.0134273216509 -0.0028240109678 0
-0.0144423881021 -0.00647475812471 0
0.00975806043731 -0.00162737921976 0
0.0172800175554 -0.0343607927223 0
-0.0131458849988 -0.0753728828 0
0.00938712717501 -0.124888123083 0
-0.0136095792218 -0.0433570821768 0
0.00840091199052 0.00039756631723 0
-0.0187201807381 -0.0129697021711 0
0.00855061779201 0.000285184286417 0
0.00732367666373 -0.000681270023727 0
-0.0137444543434 -0.0023633161123 0
-0.0140386455658 -0.0112321168098 0
0.00764584961381 -1.47107971245e-05 0
-0.0186129297782 -0.0112386589152 0
-0.00831514580926 -0.01510905891 0
0.0156837854096 -0.00921620932414 0
0.0177844601528 -0.0477250780335 0
-0.0201153310559 -0.0536568304201 0
-0.0110614166789 -0.106486974606 0
0.00845431515045 -0.108235770512 0
-0.00247544909143 -0.0222621875927 0
-0.0130746676794 -0.00259567160962 0
0.00595270453926 -0.000325612123445 0
0.0114468367604 -0.00985936331416 0
0.00816554839409 -0.000898533905713 0
-0.0126324518472 -0.00217772580939 0
0.00749610462599 -0.000105035562379 0
0.00414374460878 -0.0517237500281 0
0.0168199988781 -0.0114894125251 0
-0.0204931187508 -0.0225657452719 0
0.0125211309401 -0.0039682545067 0
-0.0180989550526 -0.0375202653742 0
0.0137996975878 -0.0441205596665 0
-0.00565861753657 -0.0702400640452 0
0.00191776039741 -0.117825355555 0
0.00898683235605 -0.001960467133 0
0.00825883563421 0.000176116252504 0
-0.0123338139283 -0.00367933101935 0
0.0120699103553 -0.00512224055914 0
0.00818294917778 -0.000418114593069 0
-0.0125964723327 -0.00247436484269 0
-0.0172249503381 -0.0325927423111 0
0.0137707571148 -0.027274357412 0
-0.0158641452743 -0.0962975403712 0
0.0159513991063 -0.084468093983 0
0.00593199995378 -0.00137719454865 0
-0.0125608533119 -0.00264355143968 0
-0.000933734627621 -0.13965133526 0
-0.0126733988136 -0.00196174444167 0
0.00811593736401 -0.0015581510898 0
0.00474736065359 -0.0188333256888 0
-0.0135034632685 -0.099962166698 0
0.0114287705614 -0.110344984043 0
-0.0148353078 -0.00409557333203 0
-0.0166506050266 -0.00636637141759 0
0.0192000983988 -0.0614639741277 0
0.00793483849801 0.00015333907844 0
0.00930069273663 -0.0613171679486 0
0.00990607146364 -0.000904153976087 0
0.0123053495104 -0.0686051554531 0
-0.0220063867908 -0.0457936253205 0
0.009473510793 -0.0181204065482 0
-0.0164592261911 -0.0901509936015 0
0.0133495726852 -0.101596745333 0
0.00624903475685 -0.00409154308562 0
-0.0083800594071 -0.0795800948741 0
0.00400640734779 -0.000443871803717 0
0.00830295994924 0.000353225691786 0
-0.0101889822703 -0.00502507156588 0
-0.0101514558038 -0.0486606626579 0
-0.0114125103524 -0.123745582188 0
0.00534252151588 -0.0109306305216 0
-0.00805164138063 -0.133192990792 0
0.00802438519106 0.00041799183648 0
0.00861692078041 -0.000641857798573 0
-0.0115596669307 -0.00235803467192 0
-0.00895949707449 -0.00854922173566 0
0.0103804579763 -0.00136925919194 0
0.00850427136884 -2.70372464461e-05 0
-0.0109156382645 -0.00320034074978 0
-0.0203199790434 -0.0245989928265 0
0.0173558450543 -0.0211230128635 0
-0.0188182964524 -0.0750029762973 0
0.0172569955674 -0.0742029249867 0
-0.000519839356818 -0.0976991122349 0
0.00325044409749 -0.000315605721643 0
-0.00726920375392 -0.00204653223229 0
0.00846649535093 -0.000525347525419 0
-0.000469089726514 -0.126499502881 0
-0.0139837905864 -0.0204800165112 0
0.0171795575234 -0.0618044807238 0
-0.0138750668123 -0.0944468393041 0
0.00587928113139 -0.103561142456 0
-0.0210429908727 -0.0417090801626 0
-0.00572223419176 -0.00122924962955 0
0.00229940381457 -0.000390833833332 0
-0.00835794021116 -0.00316814669572 0
0.00830476610842 0.000435971618121 0
-0.0129277476143 -0.00603177655095 0
0.0176149434047 -0.0131752534209 0
0.0184867162061 -0.0368729545463 0
-0.00509156022048 -0.118927639423 0
-0.0198722676932 -0.0142541726123 0
0.010060389612 -0.0134061600304 0
-0.0180646002884 -0.0780759401352 0
0.0124989386219 -0.104633965538 0
0.00756257974433 -0.000966924846769 0
-0.0134725519192 -0.00227696612368 0
0.00692866921047 -0.00146790680145 0
0.00816824427753 -0.00783938055832 0
0.00693880984142 -0.000365132776195 0
-0.0140169135375 -0.00261578407908 0
-0.00757813510793 -0.0282909763102 0
0.00485790652052 -0.0228280957823 0
-0.0134290352594 -0.106729524913 0
-0.00288916616368 -0.139871166846 0
0.011697317846 -0.10373464025 0
0.0194296529706 -0.0425444224871 0
0.0104081673446 -0.00298236210573 0
0.00732864145099 -0.00164516286183 0
-0.0133693001272 -0.00238044104543 0
0.0199675072395 -0.0236950265577 0
0.005725264576 -0.00204545180596 0
0.0094149214161 -0.000212298778922 0
0.00528836189079 -0.0130992665844 0
0.0169845374633 -0.0212632725836 0
-0.00826962857927 -0.0099949795186 0
-0.00742592473848 -0.0395272860497 0
-0.0133348343595 -0.00350864227431 0
-0.0143623951078 -0.0570792679294 0
-0.0171196612193 -0.0084974799919 0
0.011631445191 -0.00862128568632 0
-0.00967371399486 -0.00601737584272 0
-0.00610532802311 -0.00203293819579 0
0.00250944013753 -0.000973594260806 0
0.00870127997847 -0.00129668323947 0
-0.0117728443611 -0.00198239656277 0
0.00851771675296 0.000385868576737 0
0.0086693435326 -0.0134751411835 0
-0.00752465015041 -0.015396405624 0
-0.0122873282199 -0.00181470555143 0
0.00836479904164 -0.00164029938233 0
-0.0103018164207 -0.00891281708538 0
0.0059902366741 -0.000195408631609 0
-0.015365809525 -0.00696340610366 0
0.00295999857934 -0.0183088406227 0
0.00861499728897 -0.00451318224298 0
-0.0225174137819 -0.0282921201736 0
-0.0145629153777 -0.00812691851196 0
0.0199741019681 -0.0233065428718 0
0.00340605601115 -0.0776742679537 0
0.00534813544921 -0.00572554834151 0
0.00165284242549 -0.142556417263 0
0.01507409789 -0.0478822495325 0
0.00770924794935 -0.000375780505901 0
-0.0137347025248 -0.00254113357671 0
0.00503760810542 -0.00117661553764 0
0.0197183148595 -0.0533790242752 0
0.00578566216364 -0.138628225184 0
-0.016588237568 -0.0649448085632 0
-0.0135942663391 -0.0860492038867 0
0.00661003433126 -0.094605480545 0
-0.0222916372263 -0.0408974936694 0
0.020380981474 -0.0368884245616 0
0.00307920557439 -0.0373426766222 0
0.00947731661268 -0.0860989059891 0
0.00634347105805 -0.000486806763532 0
0.00839843836633 -0.000929545464808 0
-0.0121521522089 -0.00215219253111 0
-0.0109146107865 -0.0678499722117 0
-0.0122573597809 -0.0857192662655 0
0.00809680626803 -0.131138520571 0
0.0100254975406 -0.123396583565 0
-0.0122038545101 -0.00221929147527 0
0.00552693418552 -0.000651551306601 0
0.0113578479585 -0.00207514918212 0
0.00815540801862 -0.00122418315697 0
-0.0126349838933 -0.00207292448037 0
0.00852292816352 0.000292197666023 0
0.00316387934582 -0.0145106090933 0
-0.00954086124349 -0.134689843867 0
-0.0206899811803 -0.0531711784258 0
0.0153036336766 -0.0637618045182 0
0.00770305976017 0.000187610400302 0
0.0187434536803 -0.0687243451184 0
-0.00777533026396 -0.0126810840229 0
-0.0117817485665 -0.00172255912326 0
0.0087416644197 -0.00166700113065 0
-0.00865777572314 -0.108861749357 0
0.0108560250708 -0.102792112681 0
-0.0204135921206 -0.0622632329612 0
-0.0139453113107 -0.0034907811595 0
0.00808079445506 7.60003261933e-05 0
0.00803745570546 7.05402367728e-05 0
0.00836297802668 -0.000399049705615 0
-0.0120305398657 -0.0025053481147 0
0.00824998499187 0.000397337828694 0
0.0072985514745 -0.000287813457294 0
-0.00656111851179 -0.0177353140468 0
0.0125229303 -0.00349625651015 0
0.014977283922 -0.0116445517274 0
-0.0219414989596 -0.0574816398333 0
-0.00700515179521 -0.0916682844534 0
0.012827977748 -0.0842450271184 0
-0.0182190521201 -0.0142087202306 0
0.00184741391071 -0.104676485512 0
-0.0213939785766 -0.0224881807051 0
0.0171165652384 -0.0265068704299 0
-0.0200366223888 -0.0306734028829 0
-0.0169171072367 -0.0864915261546 0
0.00817455938385 1.44696425405e-05 0
0.0186889829775 -0.0195301481139 0
-0.0128339795078 -0.00311554023342 0
-0.01914131348 -0.0642564430107 0
-0.000685682405518 -0.0837084327522 0
0.0175890392273 -0.064406149362 0
0.00883160374736 -0.0049982709285 0
0.0103135431307 -0.00435142900039 0
-0.0172273788321 -0.0513697318343 0
-0.0117533498399 -0.113315926672 0
0.00711608617058 -0.118278657968 0
0.00566332801889 -0.0544195419416 0
0.00756084345527 -0.0706156501901 0
0.0152269534893 -0.016812897603 0
-0.0199325022054 -0.0730957304505 0
0.0152807916803 -0.0856429022362 0
-0.00321232594547 -0.10393685521 0
0.0084034307539 0.000260847125319 0
-0.00989685888293 -0.00443654282269 0
-0.0117294554634 -0.00975328273343 0
0.0129493245165 -0.00384690776179 0
0.0105561228045 -0.0292489275385 0
0.0143319416587 -0.0879298352785 0
0.00960633127184 -0.000688487521872 0
0.00823724012275 0.0003924417171 0
-0.0129177748849 -0.093974254629 0
0.0107754116758 -0.117157139101 0
0.00750750309516 -7.85336221865e-06 0
-0.0148546319696 -0.00351381606633 0
0.00543269691035 -0.065215146754 0
-0.012995079331 -0.00205774118312 0
0.00786918779775 -0.00163929731703 0
-0.0157669799396 -0.00823581750214 0
-0.0222018959731 -0.0292384181071 0
-0.0092025064095 -0.00589989211922 0
-0.0184289967757 -0.0201954177015 0
0.00825724130375 0.00031327379332 0
-0.012609267259 -0.00439631138815 0
0.00974901655559 -0.0019957137461 0
-0.00553958771584 -0.00123602118199 0
0.00222213923766 -0.000239983757855 0
-0.0146727638508 -0.00498497636005 0
0.000253591410068 -0.0166569558305 0
0.00869293785383 -0.00563797571575 0