# vtk DataFile Version 2.0
Generated with Solid Solver
ASCII
DATASET UNSTRUCTURED_GRID
POINTS 1163 float 
0.0 3.5 0.0
2.2 3.5 0.0
2.2 4.0 0.0
0.0 4.0 0.0
0.0687499999999 3.5 0.0
0.1375 3.5 0.0
0.20625 3.5 0.0
0.275 3.5 0.0
0.343749999999 3.5 0.0
0.412499999999 3.5 0.0
0.481249999999 3.5 0.0
0.549999999999 3.5 0.0
0.618749999998 3.5 0.0
0.687499999998 3.5 0.0
0.756249999998 3.5 0.0
0.824999999998 3.5 0.0
0.893749999998 3.5 0.0
0.962499999997 3.5 0.0
1.03125 3.5 0.0
1.1 3.5 0.0
1.16875 3.5 0.0
1.2375 3.5 0.0
1.30625 3.5 0.0
1.375 3.5 0.0
1.44375 3.5 0.0
1.5125 3.5 0.0
1.58125 3.5 0.0
1.65 3.5 0.0
1.71875 3.5 0.0
1.7875 3.5 0.0
1.85625 3.5 0.0
1.925 3.5 0.0
1.99375 3.5 0.0
2.0625 3.5 0.0
2.13125 3.5 0.0
2.2 3.56430812579 0.0
2.2 3.6227083524 0.0
2.2 3.67574343203 0.0
2.2 3.72390623714 0.0
2.2 3.76764438299 0.0
2.2 3.80736436348 0.0
2.2 3.84343531161 0.0
2.2 3.87619247056 0.0
2.2 3.90594026646 0.0
2.2 3.93295517223 0.0
2.2 3.9574882542 0.0
2.2 3.97976750927 0.0
2.18000003888 4.0 0.0
2.15999995974 4.0 0.0
2.13999995594 4.0 0.0
2.12000003893 4.0 0.0
2.0999999813 4.0 0.0
2.07999993507 4.0 0.0
2.06000001965 4.0 0.0
2.04000002354 4.0 0.0
2.01999993997 4.0 0.0
1.99999999426 4.0 0.0
1.98000004623 4.0 0.0
1.95999996625 4.0 0.0
1.93999996787 4.0 0.0
1.92000005069 4.0 0.0
1.90000001292 4.0 0.0
1.87999994967 4.0 0.0
1.86000003245 4.0 0.0
1.84000003166 4.0 0.0
1.81999995194 4.0 0.0
1.80000002065 4.0 0.0
1.78000005962 4.0 0.0
1.75999997703 4.0 0.0
1.73999998149 4.0 0.0
1.72000006236 4.0 0.0
1.70000000651 4.0 0.0
1.67999995967 4.0 0.0
1.66000004242 4.0 0.0
1.64000004304 4.0 0.0
1.61999996152 4.0 0.0
1.6000000096 4.0 0.0
1.58000006667 4.0 0.0
1.55999998704 4.0 0.0
1.53999998381 4.0 0.0
1.52000006764 4.0 0.0
1.5000000299 4.0 0.0
1.47999996242 4.0 0.0
1.46000004337 4.0 0.0
1.4400000454 4.0 0.0
1.41999996386 4.0 0.0
1.40000002834 4.0 0.0
1.38000006734 4.0 0.0
1.35999998576 4.0 0.0
1.33999998537 4.0 0.0
1.32000006658 4.0 0.0
1.30000001585 4.0 0.0
1.27999996279 4.0 0.0
1.26000004759 4.0 0.0
1.24000004493 4.0 0.0
1.2199999616 4.0 0.0
1.20000000906 4.0 0.0
1.18000006792 4.0 0.0
1.15999998616 4.0 0.0
1.13999999119 4.0 0.0
1.12000007157 4.0 0.0
1.1 4.0 0.0
1.07999992843 4.0 0.0
1.06000000881 4.0 0.0
1.04000001384 4.0 0.0
1.01999993209 4.0 0.0
0.999999990948 4.0 0.0
0.98000003841 4.0 0.0
0.959999955072 4.0 0.0
0.939999952416 4.0 0.0
0.920000037214 4.0 0.0
0.899999984154 4.0 0.0
0.879999933427 4.0 0.0
0.860000014636 4.0 0.0
0.840000014246 4.0 0.0
0.819999932662 4.0 0.0
0.79999997166 4.0 0.0
0.780000036145 4.0 0.0
0.759999954604 4.0 0.0
0.73999995663 4.0 0.0
0.72000003758 4.0 0.0
0.699999970103 4.0 0.0
0.679999932361 4.0 0.0
0.660000016189 4.0 0.0
0.640000012962 4.0 0.0
0.61999993333 4.0 0.0
0.599999990406 4.0 0.0
0.58000003848 4.0 0.0
0.559999956964 4.0 0.0
0.539999957581 4.0 0.0
0.520000040329 4.0 0.0
0.499999993489 4.0 0.0
0.479999937647 4.0 0.0
0.460000018512 4.0 0.0
0.440000022972 4.0 0.0
0.419999940378 4.0 0.0
0.399999979352 4.0 0.0
0.380000048063 4.0 0.0
0.359999968347 4.0 0.0
0.339999967553 4.0 0.0
0.320000050328 4.0 0.0
0.299999987077 4.0 0.0
0.279999949312 4.0 0.0
0.260000032129 4.0 0.0
0.240000033752 4.0 0.0
0.219999953776 4.0 0.0
0.200000005737 4.0 0.0
0.180000060031 4.0 0.0
0.159999976465 4.0 0.0
0.139999980354 4.0 0.0
0.120000064926 4.0 0.0
0.100000018697 4.0 0.0
0.0799999610675 4.0 0.0
0.0600000440571 4.0 0.0
0.0400000402596 4.0 0.0
0.0199999611169 4.0 0.0
0.0 3.97976750927 0.0
0.0 3.9574882542 0.0
0.0 3.93295517223 0.0
0.0 3.90594026646 0.0
0.0 3.87619247056 0.0
0.0 3.84343531161 0.0
0.0 3.80736436348 0.0
0.0 3.76764438299 0.0
0.0 3.72390623714 0.0
0.0 3.67574343203 0.0
0.0 3.6227083524 0.0
0.0 3.56430812579 0.0
0.249757963562 3.75212589829 0.0
1.94999996706 3.74954522137 0.0
0.488710285893 3.75947702441 0.0
0.726520490699 3.7655965719 0.0
0.967283134849 3.7597072979 0.0
1.20619032017 3.75831098673 0.0
1.45842774915 3.76733088374 0.0
1.69012076678 3.7622332834 0.0
0.130754044069 3.86878249167 0.0
2.06924595593 3.86878249167 0.0
1.8299999918 3.84622455633 0.0
1.56816462369 3.85034872999 0.0
0.369913859351 3.84868157925 0.0
0.608733620231 3.84706187144 0.0
1.33069778866 3.84790908234 0.0
0.84323446252 3.84762979148 0.0
1.08873170817 3.84705870913 0.0
0.250539365135 3.87785524304 0.0
1.94967747948 3.87849609822 0.0
1.73218750075 3.8916046151 0.0
0.468661874066 3.89189322974 0.0
1.47574192429 3.89639134117 0.0
0.704258110321 3.8963912684 0.0
1.18331258449 3.8976320365 0.0
0.949999953744 3.89208018478 0.0
1.64795374468 3.91749779939 0.0
0.548928463645 3.91905583847 0.0
1.38619509199 3.91928594438 0.0
0.788926872841 3.91906062101 0.0
1.27071160784 3.91777932845 0.0
1.02999997296 3.91685174433 0.0
1.81733541416 3.69950870754 0.0
1.86999999106 3.91823503401 0.0
0.071252620538 3.93011431841 0.0
2.12874737946 3.93011431841 0.0
2.07400690796 3.74293885365 0.0
0.125993092043 3.74293885365 0.0
0.32995676804 3.92118147353 0.0
2.00999996712 3.92542383197 0.0
0.190000032884 3.92542383197 0.0
1.56698738743 3.72218882919 0.0
1.33000000474 3.72531695685 0.0
0.848014510843 3.71986098938 0.0
1.09024665585 3.72285801424 0.0
0.610276609989 3.72290563624 0.0
1.54999998543 3.92414142844 0.0
0.629999973146 3.92414137652 0.0
0.869999974031 3.92414141814 0.0
1.11000003579 3.92414141267 0.0
1.79030638642 3.92649353654 0.0
0.370434802927 3.72513294336 0.0
0.410903135411 3.92892991244 0.0
1.33000002597 3.93737911571 0.0
0.129927648482 3.94112154503 0.0
2.07007235152 3.94112154503 0.0
1.93000000928 3.93875927586 0.0
0.26999999072 3.93875927586 0.0
1.40966706061 3.83880068991 0.0
0.770332962441 3.83880062149 0.0
1.24904900022 3.84293377683 0.0
1.01033287484 3.83880060723 0.0
0.530342681434 3.83880307444 0.0
0.189895273961 3.63486992823 0.0
2.00989835291 3.62845703161 0.0
0.998888153878 3.61665036233 0.0
1.47894673873 3.61675180774 0.0
0.51733910646 3.62937665489 0.0
0.705112628302 3.618743723 0.0
1.66672137035 3.63168728155 0.0
1.18508242495 3.61871739348 0.0
1.71000003443 3.94408608591 0.0
0.489999965568 3.94463856597 0.0
1.44983363802 3.94422347836 0.0
0.729999997105 3.94465012565 0.0
1.21016639734 3.94422345842 0.0
0.928621800545 3.94440037102 0.0
2.00626203014 3.81543543551 0.0
0.193627962274 3.81528928332 0.0
1.66628164144 3.83559795895 0.0
1.75661718781 3.81065958113 0.0
1.61143779865 3.94859227761 0.0
0.991673865748 3.95161238438 0.0
0.0604617941233 3.86281264864 0.0
2.13953820588 3.86281264865 0.0
0.300965570716 3.8114148258 0.0
0.2970894797 3.66361086085 0.0
0.398842167194 3.60449226805 0.0
1.51000004877 3.95218393067 0.0
1.90135619383 3.81213273629 0.0
0.669405272842 3.95495208979 0.0
1.07142780558 3.94866325309 0.0
0.592085094025 3.94901139323 0.0
0.831051660929 3.94633985879 0.0
1.14940528892 3.9549521224 0.0
0.44409344258 3.82719938178 0.0
1.49646539728 3.82376850413 0.0
0.683434082651 3.82631713605 0.0
0.92337834777 3.8234861632 0.0
1.16343437877 3.82631615351 0.0
1.90749084149 3.65350700271 0.0
1.8278758005 3.95083911942 0.0
0.37243073327 3.95235211027 0.0
1.29345662549 3.60569899261 0.0
0.813407949226 3.60572380122 0.0
1.29317153636 3.96216077293 0.0
1.367704599 3.96055764734 0.0
1.97071235041 3.96038324024 0.0
0.22928764959 3.96038324024 0.0
2.10610581798 3.66047411138 0.0
0.0938941820177 3.66047411138 0.0
1.67000000105 3.95862953468 0.0
1.74869816704 3.96079301687 0.0
0.531976761939 3.96138655466 0.0
0.451361042387 3.96112774725 0.0
0.771976832233 3.96138887156 0.0
1.88843481911 3.95881554986 0.0
1.61277513709 3.78538823015 0.0
2.13311214501 3.79435403671 0.0
0.0668878549946 3.79435403671 0.0
1.76678797151 3.60286552601 0.0
0.311702446283 3.9611157379 0.0
1.02877762737 3.96159282031 0.0
1.40830122607 3.96143175203 0.0
1.25214210333 3.957355862 0.0
1.59476493393 3.9048774062 0.0
1.56950979124 3.96148017208 0.0
0.890017020275 3.96125792969 0.0
2.03089110475 3.96040268709 0.0
0.169108895255 3.96040268709 0.0
0.939722125942 3.68539157065 0.0
1.41686981874 3.69192854313 0.0
0.0426348006718 3.96101756902 0.0
2.15736519933 3.96101756902 0.0
1.36077308019 3.79177204211 0.0
0.817982383499 3.78962669257 0.0
1.05834720932 3.78780184893 0.0
0.578349529346 3.78781530011 0.0
1.77992711518 3.87652731382 0.0
0.417982153133 3.87594990465 0.0
1.84363633012 3.77741329286 0.0
1.52244994479 3.87704541475 0.0
0.657426528912 3.87734838249 0.0
1.13742651778 3.87734834025 0.0
0.898116026439 3.8800466833 0.0
1.56984259435 3.64465823131 0.0
1.08983016076 3.6446495206 0.0
0.609942357805 3.64483976081 0.0
1.29451769374 3.79627773068 0.0
0.0893439668432 3.96574839433 0.0
2.11065603316 3.96574839433 0.0
2.01422398896 3.86980625824 0.0
0.185776011038 3.86980625824 0.0
0.305957237756 3.87340573745 0.0
1.72977480551 3.68665973332 0.0
1.25418096296 3.69351129461 0.0
0.629999973146 3.96272981435 0.0
1.11000003579 3.96272983221 0.0
0.772975283819 3.69297597031 0.0
1.89089074715 3.86951346173 0.0
0.445448577516 3.69456159386 0.0
1.82621986864 3.89678318705 0.0
2.07135424223 3.81165410377 0.0
0.128645757768 3.81165410377 0.0
0.373320289473 3.89968791662 0.0
1.79000004014 3.96541718891 0.0
0.383302070088 3.78976392323 0.0
0.409457623385 3.96502881851 0.0
1.55531527123 3.78787141386 0.0
1.34861332978 3.89383287415 0.0
0.593245985735 3.89483466551 0.0
0.833245353375 3.89479604398 0.0
1.0732444554 3.8948349405 0.0
0.911896623122 3.59194725763 0.0
0.187580554011 3.70699710313 0.0
2.01241944599 3.70699710313 0.0
1.39201907571 3.59233063354 0.0
2.09635520798 3.90516200201 0.0
0.103644792024 3.90516200201 0.0
1.89086147526 3.72621461413 0.0
1.02102684616 3.70044819701 0.0
1.49813234221 3.70194667869 0.0
0.53965669049 3.70593418829 0.0
1.63719578665 3.69772473547 0.0
0.685447658936 3.70127585046 0.0
1.16541741817 3.70128744764 0.0
0.901649266036 3.76287226775 0.0
0.992351690321 3.90662993531 0.0
1.69131894868 3.90657323657 0.0
1.9699561555 3.91599371502 0.0
0.230043844497 3.91599371502 0.0
1.61980840676 3.85005402918 0.0
2.04685187594 3.90639759008 0.0
0.153148124058 3.90639759008 0.0
0.512139828486 3.90538520837 0.0
1.43057458921 3.90702644399 0.0
0.749149996349 3.90689574876 0.0
[...]
POINT_DATA 1163
VECTORS Displacement float
0.0 0.0 0
0.0 0.0 0
0.0075858765303 -0.00194446984995 0
-0.0118934724412 -0.00235660463836 0
0.0 0.0 0
0.0 0.0 0
0.0 0.0 0
0.0 0.0 0
0.0 0.0 0
0.0 0.0 0
0.0 0.0 0
0.0 0.0 0
0.0 0.0 0
0.0 0.0 0
0.0 0.0 0
0.0 0.0 0
0.0 0.0 0
0.0 0.0 0
0.0 0.0 0
0.0 0.0 0
0.0 0.0 0
0.0 0.0 0
0.0 0.0 0
0.0 0.0 0
0.0 0.0 0
0.0 0.0 0
0.0 0.0 0
0.0 0.0 0
0.0 0.0 0
0.0 0.0 0
0.0 0.0 0
0.0 0.0 0
0.0 0.0 0
0.0 0.0 0
0.0 0.0 0
0.00142049127009 -0.00125127818727 0
0.00260306094393 -0.00177726206137 0
0.00363183452757 -0.00201045725536 0
0.00444595884051 -0.00208976799886 0
0.00509191952966 -0.00209018366704 0
0.00561301697152 -0.00205700186121 0
0.00602779471077 -0.00202209983063 0
0.00638084189048 -0.00198979257132 0
0.00667819532152 -0.00196560170201 0
0.0069396679009 -0.00195271206462 0
0.0071744778876 -0.00194651914037 0
0.00738906085563 -0.00194445036357 0
0.00758590610681 -0.00174922689696 0
0.00758475513991 -0.00155174110233 0
0.00758094326642 -0.00135325100863 0
0.00757336334394 -0.00115498529203 0
0.00756206382156 -0.000959195717706 0
0.00754746067501 -0.000767792168493 0
0.00752849889664 -0.000581365259062 0
0.00750735995239 -0.000402584049592 0
0.00748213529306 -0.000231260364712 0
0.00745572047429 -6.91641337183e-05 0
0.00742446691306 8.40358838933e-05 0
0.00739041632604 0.000224987407973 0
0.00735496252646 0.000353951788173 0
0.00731414994561 0.000470967910547 0
0.00727152748513 0.000573718431978 0
0.00722094889323 0.00066267350275 0
0.00716591313107 0.000734021629457 0
0.00710261495453 0.000789615289238 0
0.00703220096511 0.00082266577809 0
0.00694694328768 0.000833318542403 0
0.0068524597497 0.000817383382137 0
0.00675084911342 0.000769997881531 0
0.00662807936946 0.000697580499193 0
0.00649111122301 0.000581380374893 0
0.00632793770487 0.000427500044566 0
0.00615285027158 0.000221721081053 0
0.00594283423874 -3.3525015579e-05 0
0.00571235707789 -0.00035791441528 0
0.00545001761209 -0.000749668057474 0
0.00517466615019 -0.00122137745133 0
0.00486497430166 -0.00179484222519 0
0.004501686399 -0.00245103741779 0
0.00412132566913 -0.00323011325046 0
0.00369577107363 -0.00414117294901 0
0.00324258018579 -0.00520286976982 0
0.0027439136993 -0.00642214786112 0
0.00220154034558 -0.00783953067258 0
0.00161241606246 -0.00947908121767 0
0.00103110864646 -0.0113637076458 0
0.000388372001695 -0.0135371917488 0
-0.000236737036054 -0.0159895671935 0
-0.000883742281516 -0.0187978466329 0
-0.00152209138289 -0.0220332904698 0
-0.00227259619557 -0.0257905872198 0
-0.0028989730616 -0.0300884404359 0
-0.00354672125087 -0.0351158797709 0
-0.00409723395179 -0.0403746298211 0
-0.0024741040816 -0.0508410538052 0
-0.000579092178256 -0.0604104422403 0
0.00141439042889 -0.0693882939599 0
0.00314782708672 -0.0780183829691 0
0.00468662609279 -0.0860994942042 0
0.00599443092484 -0.0937646489049 0
0.00708022389256 -0.100965751262 0
0.00783372251157 -0.107752397751 0
0.00837735986689 -0.114115804871 0
0.00867336383858 -0.120029699117 0
0.00865165211792 -0.125490036968 0
0.00843616757014 -0.130467420402 0
0.00801336150187 -0.134955638588 0
0.00736165911879 -0.138956315047 0
0.00653608085407 -0.142446111075 0
0.0055214348316 -0.145416228498 0
0.00435951944878 -0.147857445097 0
0.00307953802312 -0.149756540344 0
0.00166998630375 -0.151105380975 0
0.000167553585604 -0.151864996318 0
-0.00137858327447 -0.152146816175 0
-0.00309350198128 -0.151856612847 0
-0.00465014290376 -0.15098584071 0
-0.00609173961514 -0.149560251436 0
-0.00744085263347 -0.147582288566 0
-0.00862753527704 -0.145069368457 0
-0.00967238589342 -0.142023742162 0
-0.0105595619487 -0.138448962013 0
-0.0112400888097 -0.13436528069 0
-0.0117080486487 -0.129785570645 0
-0.0119675612953 -0.124697688993 0
-0.0120098075643 -0.119209988794 0
-0.0117564595974 -0.113238226815 0
-0.0113360366532 -0.106788391098 0
-0.0105938365435 -0.0998884277892 0
-0.00963554307576 -0.0925434663286 0
-0.00840480878858 -0.0847522005584 0
-0.00701826596138 -0.0765219702342 0
-0.00531920545954 -0.0676737219194 0
-0.00370162358625 -0.058411324892 0
-0.00219367351918 -0.0483824474752 0
-0.00206191675817 -0.0415247386951 0
-0.00244220272128 -0.0356608765445 0
-0.00317081725351 -0.030842159637 0
-0.00389110439775 -0.0267427633078 0
-0.00465394345734 -0.0232448547677 0
-0.0054784847133 -0.0202185460252 0
-0.00628457601183 -0.0176288717483 0
-0.00702356389382 -0.0153911504113 0
-0.00778332897212 -0.0134746986205 0
-0.00845688511383 -0.0118354325313 0
-0.00911238494988 -0.0104302522481 0
-0.00970908375122 -0.0092547898632 0
-0.0102094486291 -0.00823182944988 0
-0.0106696796543 -0.00736378979521 0
-0.0110417501994 -0.00659840710701 0
-0.0113543295477 -0.00594025884158 0
-0.0115823841993 -0.00532825028052 0
-0.0117441799565 -0.00475792406606 0
-0.0118428664952 -0.00419478355094 0
-0.0118871301003 -0.00361337036429 0
-0.0118954891798 -0.003002399355 0
-0.0125540464625 -0.00235466482981 0
-0.0133169286907 -0.00237385633634 0
-0.0141988456957 -0.00244943374547 0
-0.0151775818203 -0.00261889970265 0
-0.0161874415278 -0.00297180822333 0
-0.0170555721663 -0.00350202242981 0
-0.0177576182686 -0.00420200021881 0
-0.0178830918418 -0.00508466643569 0
-0.0172368198488 -0.00595497380664 0
-0.0154734929494 -0.00665954718041 0
-0.0120048510561 -0.00665564978337 0
-0.00700700666709 -0.0051921940878 0
-0.0204018714643 -0.0102782820765 0
0.00534629093563 6.89933506086e-05 0
-0.0233932674971 -0.0380078151768 0
-0.0109973566293 -0.0681432969079 0
0.0092997432425 -0.0658077673895 0
0.0203599237804 -0.0360690891242 0
0.0145829362117 -0.00743911565776 0
0.00851174135022 -0.000213507121737 0
-0.0168487086809 -0.00602678619649 0
0.00634911764933 -0.000656960031896 0
0.00698501396058 0.000681984513193 0
0.00996971986488 -0.0021699923254 0
-0.0220870634589 -0.026264479591 0
-0.0196550220751 -0.0764425620424 0
0.0169172491084 -0.0224326208305 0
-0.00126020942914 -0.0984012280162 0
0.0170189690077 -0.0738556385559 0
-0.0176190816416 -0.0120883942763 0
0.00662479300543 0.000274932347628 0
0.00748137875212 0.000664647303 0
-0.02180735107 -0.0517051073931 0
0.00969821935334 -0.00648923099911 0
-0.012724453875 -0.105710100557 0
0.0174079395744 -0.0614398917407 0
0.00753901295192 -0.107762606979 0
0.0074695657838 -0.000119637098909 0
-0.0192050938379 -0.0794148709398 0
0.00950238976843 -0.014941202048 0
-0.00588232039645 -0.121235008851 0
0.0135791007152 -0.037470712474 0
0.012113146579 -0.103692020454 0
0.00579585155208 8.46712605563e-05 0
0.00697969806759 0.000710399344783 0
-0.0143307890282 -0.00448458227823 0
0.00691546292725 -0.0012378869144 0
0.00479171053129 -0.000677140977674 0
-0.0182795072203 -0.00540003571926 0
-0.0156063742959 -0.0212172431703 0
0.00688939043397 -0.000136237088275 0
-0.0143261189692 -0.00836887886155 0
0.0110606990472 -0.00254682212601 0
0.0183839757128 -0.0168865250043 0
-0.000508633048051 -0.058219780591 0
0.0162773153587 -0.0449526670574 0
-0.0177768504292 -0.0465664653773 0
0.00757794324538 -0.00262452791732 0
-0.0162961494972 -0.101034212437 0
0.00090297552707 -0.124058893153 0
0.0145265878057 -0.0873040670053 0
0.00709527307466 0.000862300339679 0
-0.0221391977278 -0.0190672609726 0
-0.0168969189036 -0.0380048895876 0
0.00869080621217 -0.0237274194371 0
-0.0136919947533 -0.00606796321844 0
0.00701314255882 -0.000663930296755 0
0.00700861378823 0.000430793095293 0
-0.0133235342146 -0.0139797479304 0
0.0144925905197 -0.0119921693486 0
-0.00771661172914 -0.0934111964659 0
0.0196447465156 -0.0380004499108 0
0.0125633656826 -0.0842463419833 0
-0.0230739693886 -0.0588142302234 0
-0.0138963435507 -0.00465575249927 0
0.00287098861585 -0.000240794107227 0
0.00753107741188 -0.0262610358232 0
0.00984748294749 -0.00391766910245 0
-0.0154479355651 -0.0204167311071 0
-0.00807607332672 -0.0273182647042 0
0.00651121292167 -0.000844666152902 0
0.0134346670333 -0.0176082341919 0
0.00699056404884 0.000587954152237 0
-0.0169195010244 -0.0650886389566 0
0.00657421620169 -0.00840189514085 0
-0.0100632557699 -0.124684752313 0
0.0121593278548 -0.0591069225217 0
0.00533814035086 -0.127370097667 0
0.0059020363012 -0.000159046701562 0
-0.0190556712405 -0.00812828340792 0
0.00867513211505 -0.000120262375228 0
0.00760093320902 0.000473361663498 0
0.00671102944139 -0.000803114980139 0
0.0090737310632 -0.121208515038 0
-0.0167868548545 -0.00446277861031 0
0.0062527013885 -0.00135297326753 0
-0.0214270960983 -0.0158641791601 0
-0.0177863218668 -0.00970873164837 0
-0.0140085553119 -0.0106183493252 0
0.00616399400334 -0.00444356963589 0
0.00633697338446 0.000398670573793 0
-0.0132736633975 -0.118155532716 0
0.0121117242876 -0.103380807888 0
-0.016088621628 -0.0983139763835 0
-0.00231134111931 -0.13227578951 0
0.0118462878228 -0.0820316837522 0
-0.0241805439641 -0.0387994647901 0
0.0123510495069 -0.00534075788882 0
-0.014878215023 -0.0819248933773 0
0.00584342018352 -0.088027663167 0
0.0199463999564 -0.0544040137288 0
0.0040020842801 -4.31876959192e-05 0
0.00703767281802 0.000844656562008 0
-0.0123643093045 -0.0290181918503 0
0.0124787236715 -0.0103485807874 0
-0.00209515038441 -0.0258715538711 0
0.00559462597117 -0.0317617258581 0
0.00490639002366 -0.0174726719708 0
0.00714026596317 0.000165303606892 0
-0.0117525662578 -0.0107532861026 0
0.00330324278879 -0.00078713267876 0
-0.0147435813344 -0.00415022104947 0
0.00668644106491 0.000196763414467 0
0.00690174520742 0.000789753838943 0
-0.0151097082047 -0.0825953043129 0
-0.0133944033972 -0.0523612512687 0
-0.00691316617613 -0.134927789818 0
0.00708614463207 0.000649426166059 0
0.0100941236586 -0.00126962589012 0
0.00546293150934 -0.00127243191122 0
-0.0182146114027 -0.00485483876944 0
0.00407262293922 -0.00034658958452 0
-0.0108086082636 -0.0187612427916 0
0.0103055633269 -0.117006257807 0
0.00490003376623 -0.0123362497994 0
0.00859675785019 -0.044431645485 0
0.0080612786293 -0.00121741515708 0
0.00607894293751 -0.00196346481268 0
0.00239977830949 -0.13636467726 0
0.00716797771406 -0.000311945834456 0
-0.0124535487724 -0.00751714980845 0
0.00619367286387 -0.0462839579458 0
0.0150513814287 -0.00857722884031 0
-0.0131816631025 -0.00369052266799 0
0.00720789920768 -0.00152510924505 0
0.0177297818919 -0.0165651233449 0
-0.00343856676264 -0.0794315846533 0
0.0157676342206 -0.0640962309896 0
-0.0211868464036 -0.0572627770747 0
0.00730241670524 0.000768544851062 0
-0.0219671111986 -0.0372368831142 0
0.00650465819442 0.00041726530388 0
0.00985950471894 -0.00391544652853 0
-0.016257733442 -0.0929833000065 0
0.0178660880123 -0.0700212571055 0
0.00343360708553 -0.107812712804 0
0.00905025582226 -0.00221365308743 0
0.0127530858636 -0.0281817958259 0
-0.0138508189533 -0.0291295847778 0
0.0196749265079 -0.0259173463302 0
-0.0128563671246 -0.00495245640796 0
0.0072439837797 -0.00105826456375 0
0.00642585453176 -0.000185257880901 0
-0.0172086933742 -0.00804039673877 0
-0.0190227383369 -0.0175588968653 0
0.00685761822507 -0.000281163815438 0
0.0184248901758 -0.0220230468936 0
-0.0143249889776 -0.111707134082 0
0.0113576640663 -0.0961143564148 0
-0.00621295856628 -0.049368233297 0
0.0067544562581 0.000568309558911 0
-0.0211588077977 -0.023831246772 0
0.00705731385374 0.000804243385297 0
0.0057252964313 -0.000674037940081 0
-0.0183750760426 -0.00586316517217 0
-0.0189049522883 -0.0285801395875 0
0.00697197692244 0.000865609586275 0
-0.0236388049675 -0.0252208461114 0
-0.0109175794401 -0.0381913881863 0
0.0114409798319 -0.00285365637346 0
0.0129988332877 -0.0203403803593 0
-0.0191592534583 -0.0852152988283 0
-0.00219915156455 -0.114262320252 0
0.0149012412698 -0.0889103997957 0
0.00273003635119 -0.0220248727191 0
-0.0180189352831 -0.00635688518925 0
0.00437673794356 -0.000263659506928 0
0.00987508158853 -0.00550908714002 0
0.00668530313825 -0.000913939170838 0
-0.0153423158646 -0.00530297386504 0
0.0054500653669 0.000163427522695 0
0.0119254175314 -0.0457880356954 0
0.0127719418919 -0.00477789034194 0
-0.0200285179657 -0.0356735874376 0
0.008928649353 -0.00114882371323 0
-0.0125792529035 -0.0474752713803 0
0.018023466691 -0.0325243772788 0
0.00397112638446 -0.070191387361 0
0.0102158733849 -0.10700349168 0
0.00751149308292 0.000391100231045 0
0.00684699444906 0.000165057945298 0
-0.0149871339274 -0.0106839746882 0
0.00912114737112 -0.000833608044704 0
0.00671465466746 -0.000452145198262 0
-0.0153260281582 -0.00679008715542 0
-0.0207777528877 -0.0661871744781 0
0.00975329784911 -0.0100660155903 0
-0.00919589556723 -0.114169224215 0
0.0157970032597 -0.0495269407386 0
0.00447267971337 -0.00124391271691 0
-0.0175509302393 -0.00493479776862 0
0.00692083373444 -0.131465249473 0
-0.0154613436629 -0.00383972957667 0
0.00663043486851 -0.00155125132102 0
0.00499670747934 -0.00637596599228 0
-0.0113168800778 -0.127869882159 0
0.00946939881734 -0.0724520655763 0
-0.0197480293864 -0.0113748231092 0
-0.021830322168 -0.0151654169209 0
0.0171052207305 -0.0315977072267 0
0.00620916167295 0.000184821992788 0
0.00434306867256 -0.0236857617938 0
0.00715973431173 0.000201457117888 0
0.0185843621676 -0.0534470270804 0
-0.0176334347744 -0.0632869986765 0
0.00750809499873 -0.00602129162344 0
-0.0124749385904 -0.115498073887 0
0.0144366635497 -0.0683187855699 0
0.00637052487801 -0.000298918266331 0
0.00138796982254 -0.0819141871256 0
0.00271184282929 -0.000146894005937 0
0.00714103258335 0.000429928383371 0
-0.0108522101089 -0.0140893487162 0
-0.0146742682512 -0.0928889893435 0
-0.00488015342939 -0.138679303073 0
0.00570277410831 -0.00300146763605 0
0.000188134766857 -0.13892907145 0
0.00708755694547 0.000747926462204 0
0.00722874389737 -0.000664243353792 0
-0.0125742861506 -0.00613241312828 0
-0.00962402897036 -0.0225524766141 0
0.00795618047677 0.000421366072706 0
0.00720825060271 -4.25789187065e-05 0
-0.0116031424814 -0.00912521885292 0
-0.0238180644669 -0.049238456711 0
0.0126977222001 -0.00783495511505 0
-0.0117754868883 -0.0918497447904 0
0.0200760297763 -0.0491547529937 0
0.00898023593965 -0.0918036699568 0
0.00223151819045 -0.000158626008807 0
-0.0098347735925 -0.00414989182134 0
0.00721345350572 0.000783135478187 0
0.00792334991397 -0.118503787403 0
-0.0193902112668 -0.0485608709725 0
0.0132698478589 -0.0283823823266 0
-0.00531283596688 -0.105337569887 0
0.0137970680049 -0.0892789931747 0
-0.0213970777587 -0.0714997907639 0
-0.00822023801552 -0.00242177680351 0
0.00161297125336 -0.000315366608803 0
-0.0105339606111 -0.00599023198599 0
0.00688564646286 0.000558389500304 0
-0.0165057892347 -0.0167001319698 0
0.0130923055699 -0.00489398423082 0
0.0136197632245 -0.0152759252482 0
0.0040779941981 -0.118093157593 0
-0.0234168946492 -0.0282100638942 0
0.00802163038332 -0.00401944501602 0
-0.0147973781487 -0.105883238154 0
0.0155787126657 -0.0760715000568 0
0.00599907754657 -0.000952949525891 0
-0.0176534914652 -0.00527772805983 0
0.00670759462675 0.000567115356216 0
0.00716751305185 -0.00172277454118 0
0.00528758930581 -0.000347068528246 0
-0.0190766144238 -0.00677897891412 0
-0.0131526224588 -0.0685846022475 0
0.00479861745183 -0.0081059653153 0
-0.00996640592084 -0.131440938488 0
0.00538212838287 -0.135235346683 0
0.00874581173335 -0.0631217204107 0
0.0198952170123 -0.0259015728582 0
0.00818878932386 5.07944317679e-06 0
0.00578206981828 -0.0015756799901 0
-0.0177309665513 -0.0044348131641 0
0.0166462545855 -0.0115335440555 0
0.004025923019 -0.000931214506305 0
0.00708173747973 0.000533646055491 0
0.00758577253188 -0.0104229455875 0
0.015680524807 -0.0121052090582 0
-0.00622791238786 -0.0127301102098 0
0.000163538036541 -0.0412711354115 0
-0.0179515777291 -0.00825874010245 0
-0.00603308499641 -0.064408028126 0
-0.0225353407454 -0.0209125098629 0
0.0089695829705 -0.00210089947813 0
-0.0104421686675 -0.00979960516063 0
-0.00891274803533 -0.00334689259475 0
0.001803019641 -0.00080382678875 0
0.00728154933752 -0.00130593900259 0
-0.0128399510573 -0.00429235627988 0
0.00692006710513 0.000694241143858 0
0.00968570074119 -0.00938962099639 0
-0.00383731323359 -0.0177014762128 0
-0.014357008158 -0.00344200088109 0
0.00690953790376 -0.00164623095025 0
-0.00959994966648 -0.0128955066942 0
0.00429404011947 -4.3056179664e-05 0
-0.0189958895489 -0.0140889637178 0
0.00683916161883 -0.0160636875701 0
0.0064908146831 -0.00218725869018 0
-0.0231604847039 -0.048418914362 0
-0.0192844378508 -0.0213444986162 0
0.0154867364701 -0.00993360686108 0
0.0123996186315 -0.0696537778622 0
0.00592966787142 -0.000916438894355 0
0.00836005995136 -0.12917758437 0
0.00998505356468 -0.0192287844818 0
0.00611557308121 -0.00039744078557 0
-0.0180055873489 -0.00691603658698 0
0.00342921131081 -0.000456609400424 0
0.0206926800832 -0.0326374480711 0
0.0100042134272 -0.116752329977 0
-0.00834016969109 -0.075278159719 0
-0.00452467353266 -0.0948614302434 0
0.0147147680657 -0.0809312271002 0
-0.0218095237506 -0.0674191989154 0
0.0159439369743 -0.0163179065641 0
0.00273076270011 -0.0143876020117 0
0.00294656735119 -0.0382569975541 0
0.00440306770318 -6.24887227328e-05 0
0.00695912546557 -0.000946844914382 0
-0.0140703999007 -0.00521286416766 0
-0.0141102377623 -0.108166113311 0
-0.0131263704013 -0.120272623323 0
0.0108090256665 -0.104716879958 0
0.00999123348772 -0.0906493816758 0
-0.0170661924016 -0.00496163174168 0
0.00408150537798 -0.00058215335002 0
0.00841888714975 8.96325522728e-05 0
0.00667333805011 -0.00122604651162 0
-0.0153417984934 -0.00456479755413 0
0.00664655929297 0.00054649038919 0
0.00450468397971 -0.00454829273539 0
-0.00229854308574 -0.145633746951 0
-0.0146623695341 -0.0684770534814 0
0.0200659598649 -0.04626407678 0
0.00700778897984 0.000857896416322 0
0.0182204027148 -0.0385569685922 0
-0.0088307131248 -0.0322278680979 0
-0.0127958439829 -0.00322059919013 0
0.00731838472406 -0.00168136858123 0
0.000622904178599 -0.112876258046 0
0.0163592956094 -0.0803957697463 0
-0.0177785754765 -0.0910185011533 0
-0.0181874630802 -0.00998349286477 0
0.00602886049657 0.000322905675693 0
0.00645745062548 5.43483145069e-05 0
0.00694798910047 -0.00043303447675 0
-0.0139646365822 -0.00689717990605 0
0.0070260744081 0.000800591212942 0
0.00687735471548 0.000831140736634 0
-0.00892578368242 -0.0446192286221 0
0.00915788658163 -0.000462476411198 0
0.011002939385 -0.00355568817339 0
-0.0175604898759 -0.0796190798091 0
0.00282754830108 -0.0928237261699 0
0.0187046576676 -0.0643199808788 0
-0.0234107820212 -0.0325178392717 0
0.010806913938 -0.0954515971608 0
-0.0242234878982 -0.0429671447094 0
0.0123581090543 -0.0101089509852 0
-0.0228345048693 -0.0594010408944 0
-0.00940273640034 -0.102168824052 0
0.00669844416057 -1.64539891791e-05 0
0.0139966321931 -0.00758830484995 0
-0.0159369357433 -0.00904442937951 0
-0.0119129145866 -0.0785624771753 0
0.0089039426513 -0.078804479648 0
0.0206793565947 -0.0431571820495 0
0.00751703082285 -0.000633823363607 0
0.00821575658859 -0.000436938579871 0
-0.018226440509 -0.0879624954562 0
-0.003688149767 -0.124132860644 0
0.0132252123934 -0.098851815752 0
0.00225718184603 -0.020276817045 0
0.00205899676144 -0.0276125143694 0
0.0111402741058 -0.00568145024569 0
-0.014177943978 -0.093973198002 0
0.0190591581027 -0.0598018181674 0
0.00638710871695 -0.100670430261 0
0.00724147556371 0.000308905897941 0
-0.00987968110628 -0.0124967681872 0
-0.0151944989924 -0.0255382297359 0
0.00931073974001 -0.000818051882065 0
0.00748743671292 -0.0108222418801 0
0.0125899632896 -0.048870844064 0
0.00757350408598 0.000654311512147 0
0.00718975332718 0.000533681344314 0
-0.0122458171198 -0.125164565262 0
0.00948595866527 -0.0814452100926 0
0.00575243813694 2.15318086928e-05 0
-0.0199924331461 -0.0095504220827 0
0.0137084520611 -0.0568928870906 0
-0.0163989397716 -0.00389305758664 0
0.0063560337105 -0.00161536215621 0
-0.0209369144694 -0.0211841691148 0
-0.0212230464784 -0.0459917020941 0
-0.00903143998956 -0.0161619654082 0
-0.0232150894018 -0.0441307812061 0
0.00683207767997 0.000335566402716 0
-0.0156699685479 -0.0126448763475 0
0.00782620488275 0.000344058812273 0
-0.00778664658335 -0.00255141284345 0
0.00152793287277 -0.000166032718727 0
-0.0193773465902 -0.0138281049426 0
0.0042446309177 -0.0155820836453 0
0.00699164622153 -0.00295904437684 0