# vtk DataFile Version 2.0
Generated with Solid Solver
ASCII
DATASET UNSTRUCTURED_GRID
POINTS 1163 float 
0.0 3.5 0.0
2.2 3.5 0.0
2.2 4.0 0.0
0.0 4.0 0.0
0.0687499999999 3.5 0.0
0.1375 3.5 0.0
0.20625 3.5 0.0
0.275 3.5 0.0
0.343749999999 3.5 0.0
0.412499999999 3.5 0.0
0.481249999999 3.5 0.0
0.549999999999 3.5 0.0
0.618749999998 3.5 0.0
0.687499999998 3.5 0.0
0.756249999998 3.5 0.0
0.824999999998 3.5 0.0
0.893749999998 3.5 0.0
0.962499999997 3.5 0.0
1.03125 3.5 0.0
1.1 3.5 0.0
1.16875 3.5 0.0
1.2375 3.5 0.0
1.30625 3.5 0.0
1.375 3.5 0.0
1.44375 3.5 0.0
1.5125 3.5 0.0
1.58125 3.5 0.0
1.65 3.5 0.0
1.71875 3.5 0.0
1.7875 3.5 0.0
1.85625 3.5 0.0
1.925 3.5 0.0
1.99375 3.5 0.0
2.0625 3.5 0.0
2.13125 3.5 0.0
2.2 3.56430812579 0.0
2.2 3.6227083524 0.0
2.2 3.67574343203 0.0
2.2 3.72390623714 0.0
2.2 3.76764438299 0.0
2.2 3.80736436348 0.0
2.2 3.84343531161 0.0
2.2 3.87619247056 0.0
2.2 3.90594026646 0.0
2.2 3.93295517223 0.0
2.2 3.9574882542 0.0
2.2 3.97976750927 0.0
2.18000003888 4.0 0.0
2.15999995974 4.0 0.0
2.13999995594 4.0 0.0
2.12000003893 4.0 0.0
2.0999999813 4.0 0.0
2.07999993507 4.0 0.0
2.06000001965 4.0 0.0
2.04000002354 4.0 0.0
2.01999993997 4.0 0.0
1.99999999426 4.0 0.0
1.98000004623 4.0 0.0
1.95999996625 4.0 0.0
1.93999996787 4.0 0.0
1.92000005069 4.0 0.0
1.90000001292 4.0 0.0
1.87999994967 4.0 0.0
1.86000003245 4.0 0.0
1.84000003166 4.0 0.0
1.81999995194 4.0 0.0
1.80000002065 4.0 0.0
1.78000005962 4.0 0.0
1.75999997703 4.0 0.0
1.73999998149 4.0 0.0
1.72000006236 4.0 0.0
1.70000000651 4.0 0.0
1.67999995967 4.0 0.0
1.66000004242 4.0 0.0
1.64000004304 4.0 0.0
1.61999996152 4.0 0.0
1.6000000096 4.0 0.0
1.58000006667 4.0 0.0
1.55999998704 4.0 0.0
1.53999998381 4.0 0.0
1.52000006764 4.0 0.0
1.5000000299 4.0 0.0
1.47999996242 4.0 0.0
1.46000004337 4.0 0.0
1.4400000454 4.0 0.0
1.41999996386 4.0 0.0
1.40000002834 4.0 0.0
1.38000006734 4.0 0.0
1.35999998576 4.0 0.0
1.33999998537 4.0 0.0
1.32000006658 4.0 0.0
1.30000001585 4.0 0.0
1.27999996279 4.0 0.0
1.26000004759 4.0 0.0
1.24000004493 4.0 0.0
1.2199999616 4.0 0.0
1.20000000906 4.0 0.0
1.18000006792 4.0 0.0
1.15999998616 4.0 0.0
1.13999999119 4.0 0.0
1.12000007157 4.0 0.0
1.1 4.0 0.0
1.07999992843 4.0 0.0
1.06000000881 4.0 0.0
1.04000001384 4.0 0.0
1.01999993209 4.0 0.0
0.999999990948 4.0 0.0
0.98000003841 4.0 0.0
0.959999955072 4.0 0.0
0.939999952416 4.0 0.0
0.920000037214 4.0 0.0
0.899999984154 4.0 0.0
0.879999933427 4.0 0.0
0.860000014636 4.0 0.0
0.840000014246 4.0 0.0
0.819999932662 4.0 0.0
0.79999997166 4.0 0.0
0.780000036145 4.0 0.0
0.759999954604 4.0 0.0
0.73999995663 4.0 0.0
0.72000003758 4.0 0.0
0.699999970103 4.0 0.0
0.679999932361 4.0 0.0
0.660000016189 4.0 0.0
0.640000012962 4.0 0.0
0.61999993333 4.0 0.0
0.599999990406 4.0 0.0
0.58000003848 4.0 0.0
0.559999956964 4.0 0.0
0.539999957581 4.0 0.0
0.520000040329 4.0 0.0
0.499999993489 4.0 0.0
0.479999937647 4.0 0.0
0.460000018512 4.0 0.0
0.440000022972 4.0 0.0
0.419999940378 4.0 0.0
0.399999979352 4.0 0.0
0.380000048063 4.0 0.0
0.359999968347 4.0 0.0
0.339999967553 4.0 0.0
0.320000050328 4.0 0.0
0.299999987077 4.0 0.0
0.279999949312 4.0 0.0
0.260000032129 4.0 0.0
0.240000033752 4.0 0.0
0.219999953776 4.0 0.0
0.200000005737 4.0 0.0
0.180000060031 4.0 0.0
0.159999976465 4.0 0.0
0.139999980354 4.0 0.0
0.120000064926 4.0 0.0
0.100000018697 4.0 0.0
0.0799999610675 4.0 0.0
0.0600000440571 4.0 0.0
0.0400000402596 4.0 0.0
0.0199999611169 4.0 0.0
0.0 3.97976750927 0.0
0.0 3.9574882542 0.0
0.0 3.93295517223 0.0
0.0 3.90594026646 0.0
0.0 3.87619247056 0.0
0.0 3.84343531161 0.0
0.0 3.80736436348 0.0
0.0 3.76764438299 0.0
0.0 3.72390623714 0.0
0.0 3.67574343203 0.0
0.0 3.6227083524 0.0
0.0 3.56430812579 0.0
0.249757963562 3.75212589829 0.0
1.94999996706 3.74954522137 0.0
0.488710285893 3.75947702441 0.0
0.726520490699 3.7655965719 0.0
0.967283134849 3.7597072979 0.0
1.20619032017 3.75831098673 0.0
1.45842774915 3.76733088374 0.0
1.69012076678 3.7622332834 0.0
0.130754044069 3.86878249167 0.0
2.06924595593 3.86878249167 0.0
1.8299999918 3.84622455633 0.0
1.56816462369 3.85034872999 0.0
0.369913859351 3.84868157925 0.0
0.608733620231 3.84706187144 0.0
1.33069778866 3.84790908234 0.0
0.84323446252 3.84762979148 0.0
1.08873170817 3.84705870913 0.0
0.250539365135 3.87785524304 0.0
1.94967747948 3.87849609822 0.0
1.73218750075 3.8916046151 0.0
0.468661874066 3.89189322974 0.0
1.47574192429 3.89639134117 0.0
0.704258110321 3.8963912684 0.0
1.18331258449 3.8976320365 0.0
0.949999953744 3.89208018478 0.0
1.64795374468 3.91749779939 0.0
0.548928463645 3.91905583847 0.0
1.38619509199 3.91928594438 0.0
0.788926872841 3.91906062101 0.0
1.27071160784 3.91777932845 0.0
1.02999997296 3.91685174433 0.0
1.81733541416 3.69950870754 0.0
1.86999999106 3.91823503401 0.0
0.071252620538 3.93011431841 0.0
2.12874737946 3.93011431841 0.0
2.07400690796 3.74293885365 0.0
0.125993092043 3.74293885365 0.0
0.32995676804 3.92118147353 0.0
2.00999996712 3.92542383197 0.0
0.190000032884 3.92542383197 0.0
1.56698738743 3.72218882919 0.0
1.33000000474 3.72531695685 0.0
0.848014510843 3.71986098938 0.0
1.09024665585 3.72285801424 0.0
0.610276609989 3.72290563624 0.0
1.54999998543 3.92414142844 0.0
0.629999973146 3.92414137652 0.0
0.869999974031 3.92414141814 0.0
1.11000003579 3.92414141267 0.0
1.79030638642 3.92649353654 0.0
0.370434802927 3.72513294336 0.0
0.410903135411 3.92892991244 0.0
1.33000002597 3.93737911571 0.0
0.129927648482 3.94112154503 0.0
2.07007235152 3.94112154503 0.0
1.93000000928 3.93875927586 0.0
0.26999999072 3.93875927586 0.0
1.40966706061 3.83880068991 0.0
0.770332962441 3.83880062149 0.0
1.24904900022 3.84293377683 0.0
1.01033287484 3.83880060723 0.0
0.530342681434 3.83880307444 0.0
0.189895273961 3.63486992823 0.0
2.00989835291 3.62845703161 0.0
0.998888153878 3.61665036233 0.0
1.47894673873 3.61675180774 0.0
0.51733910646 3.62937665489 0.0
0.705112628302 3.618743723 0.0
1.66672137035 3.63168728155 0.0
1.18508242495 3.61871739348 0.0
1.71000003443 3.94408608591 0.0
0.489999965568 3.94463856597 0.0
1.44983363802 3.94422347836 0.0
0.729999997105 3.94465012565 0.0
1.21016639734 3.94422345842 0.0
0.928621800545 3.94440037102 0.0
2.00626203014 3.81543543551 0.0
0.193627962274 3.81528928332 0.0
1.66628164144 3.83559795895 0.0
1.75661718781 3.81065958113 0.0
1.61143779865 3.94859227761 0.0
0.991673865748 3.95161238438 0.0
0.0604617941233 3.86281264864 0.0
2.13953820588 3.86281264865 0.0
0.300965570716 3.8114148258 0.0
0.2970894797 3.66361086085 0.0
0.398842167194 3.60449226805 0.0
1.51000004877 3.95218393067 0.0
1.90135619383 3.81213273629 0.0
0.669405272842 3.95495208979 0.0
1.07142780558 3.94866325309 0.0
0.592085094025 3.94901139323 0.0
0.831051660929 3.94633985879 0.0
1.14940528892 3.9549521224 0.0
0.44409344258 3.82719938178 0.0
1.49646539728 3.82376850413 0.0
0.683434082651 3.82631713605 0.0
0.92337834777 3.8234861632 0.0
1.16343437877 3.82631615351 0.0
1.90749084149 3.65350700271 0.0
1.8278758005 3.95083911942 0.0
0.37243073327 3.95235211027 0.0
1.29345662549 3.60569899261 0.0
0.813407949226 3.60572380122 0.0
1.29317153636 3.96216077293 0.0
1.367704599 3.96055764734 0.0
1.97071235041 3.96038324024 0.0
0.22928764959 3.96038324024 0.0
2.10610581798 3.66047411138 0.0
0.0938941820177 3.66047411138 0.0
1.67000000105 3.95862953468 0.0
1.74869816704 3.96079301687 0.0
0.531976761939 3.96138655466 0.0
0.451361042387 3.96112774725 0.0
0.771976832233 3.96138887156 0.0
1.88843481911 3.95881554986 0.0
1.61277513709 3.78538823015 0.0
2.13311214501 3.79435403671 0.0
0.0668878549946 3.79435403671 0.0
1.76678797151 3.60286552601 0.0
0.311702446283 3.9611157379 0.0
1.02877762737 3.96159282031 0.0
1.40830122607 3.96143175203 0.0
1.25214210333 3.957355862 0.0
1.59476493393 3.9048774062 0.0
1.56950979124 3.96148017208 0.0
0.890017020275 3.96125792969 0.0
2.03089110475 3.96040268709 0.0
0.169108895255 3.96040268709 0.0
0.939722125942 3.68539157065 0.0
1.41686981874 3.69192854313 0.0
0.0426348006718 3.96101756902 0.0
2.15736519933 3.96101756902 0.0
1.36077308019 3.79177204211 0.0
0.817982383499 3.78962669257 0.0
1.05834720932 3.78780184893 0.0
0.578349529346 3.78781530011 0.0
1.77992711518 3.87652731382 0.0
0.417982153133 3.87594990465 0.0
1.84363633012 3.77741329286 0.0
1.52244994479 3.87704541475 0.0
0.657426528912 3.87734838249 0.0
1.13742651778 3.87734834025 0.0
0.898116026439 3.8800466833 0.0
1.56984259435 3.64465823131 0.0
1.08983016076 3.6446495206 0.0
0.609942357805 3.64483976081 0.0
1.29451769374 3.79627773068 0.0
0.0893439668432 3.96574839433 0.0
2.11065603316 3.96574839433 0.0
2.01422398896 3.86980625824 0.0
0.185776011038 3.86980625824 0.0
0.305957237756 3.87340573745 0.0
1.72977480551 3.68665973332 0.0
1.25418096296 3.69351129461 0.0
0.629999973146 3.96272981435 0.0
1.11000003579 3.96272983221 0.0
0.772975283819 3.69297597031 0.0
1.89089074715 3.86951346173 0.0
0.445448577516 3.69456159386 0.0
1.82621986864 3.89678318705 0.0
2.07135424223 3.81165410377 0.0
0.128645757768 3.81165410377 0.0
0.373320289473 3.89968791662 0.0
1.79000004014 3.96541718891 0.0
0.383302070088 3.78976392323 0.0
0.409457623385 3.96502881851 0.0
1.55531527123 3.78787141386 0.0
1.34861332978 3.89383287415 0.0
0.593245985735 3.89483466551 0.0
0.833245353375 3.89479604398 0.0
1.0732444554 3.8948349405 0.0
0.911896623122 3.59194725763 0.0
0.187580554011 3.70699710313 0.0
2.01241944599 3.70699710313 0.0
1.39201907571 3.59233063354 0.0
2.09635520798 3.90516200201 0.0
0.103644792024 3.90516200201 0.0
1.89086147526 3.72621461413 0.0
1.02102684616 3.70044819701 0.0
1.49813234221 3.70194667869 0.0
0.53965669049 3.70593418829 0.0
1.63719578665 3.69772473547 0.0
0.685447658936 3.70127585046 0.0
1.16541741817 3.70128744764 0.0
0.901649266036 3.76287226775 0.0
0.992351690321 3.90662993531 0.0
1.69131894868 3.90657323657 0.0
1.9699561555 3.91599371502 0.0
0.230043844497 3.91599371502 0.0
1.61980840676 3.85005402918 0.0
2.04685187594 3.90639759008 0.0
0.153148124058 3.90639759008 0.0
0.512139828486 3.90538520837 0.0
1.43057458921 3.90702644399 0.0
0.749149996349 3.90689574876 0.0
[...]
POINT_DATA 1163
VECTORS Displacement float
0.0 0.0 0
0.0 0.0 0
0.0033466631708 5.39034974685e-05 0
-0.00305163062554 -0.0005033062197 0
0.0 0.0 0
0.0 0.0 0
0.0 0.0 0
0.0 0.0 0
0.0 0.0 0
0.0 0.0 0
0.0 0.0 0
0.0 0.0 0
0.0 0.0 0
0.0 0.0 0
0.0 0.0 0
0.0 0.0 0
0.0 0.0 0
0.0 0.0 0
0.0 0.0 0
0.0 0.0 0
0.0 0.0 0
0.0 0.0 0
0.0 0.0 0
0.0 0.0 0
0.0 0.0 0
0.0 0.0 0
0.0 0.0 0
0.0 0.0 0
0.0 0.0 0
0.0 0.0 0
0.0 0.0 0
0.0 0.0 0
0.0 0.0 0
0.0 0.0 0
0.0 0.0 0
0.00129672552041 -0.000852131918336 0
0.00228924600127 -0.00100981032903 0
0.00301246968712 -0.000904985106937 0
0.00341817802417 -0.000689319678593 0
0.00361926422703 -0.000470800482507 0
0.00368141111026 -0.000277454478028 0
0.00365200236849 -0.000135761834621 0
0.00359692974141 -3.84930848648e-05 0
0.00352532573758 1.97571163315e-05 0
0.00346004421807 4.40380769717e-05 0
0.00340980806892 5.34493568243e-05 0
0.0033736965536 5.4515836854e-05 0
0.00334727533245 2.77886290073e-05 0
0.0033475664249 7.53473356151e-06 0
0.00334286553644 -5.35204334575e-06 0
0.00333017968929 -1.12027879823e-05 0
0.00330661892022 -1.2068228346e-05 0
0.00326992819192 -1.37970852683e-05 0
0.0032175756831 -1.41710632555e-05 0
0.00315005595176 -2.55899530874e-05 0
0.0030638746938 -4.23929774096e-05 0
0.00296326521553 -7.74860035178e-05 0
0.00283849170689 -0.000127362391028 0
0.00269592800156 -0.000202409042171 0
0.00253667458412 -0.000307498326247 0
0.00235162842074 -0.000439293584295 0
0.00215089712628 -0.000612715734292 0
0.00191906325813 -0.000823433375711 0
0.00166924889588 -0.0010876766098 0
0.00139109764826 -0.00140024183168 0
0.00109221886289 -0.00178216093356 0
0.000753058864438 -0.00223325769884 0
0.000394785919806 -0.00276726915126 0
2.49852480403e-05 -0.0033948875233 0
-0.000390541998414 -0.0041104301409 0
-0.000824836691253 -0.00495279009797 0
-0.00130769323845 -0.00592420250818 0
-0.00178714236703 -0.00704642973131 0
-0.0023192857377 -0.00833196973791 0
-0.00287477716202 -0.00982391476664 0
-0.00345039388302 -0.011529509125 0
-0.0039867243792 -0.0134821372548 0
-0.00453236643686 -0.0157581376157 0
-0.00516044390416 -0.0183837099423 0
-0.00569514716897 -0.0214285289639 0
-0.00620959298754 -0.0250424072349 0
-0.00658095061863 -0.0292627278729 0
-0.00597553988884 -0.036392640612 0
-0.00504692266722 -0.0427951401926 0
-0.00401199524363 -0.0486640230147 0
-0.00314436285332 -0.0540721326341 0
-0.00231383703252 -0.0590059872534 0
-0.00162861458011 -0.0634852019969 0
-0.00103563447112 -0.0675041827836 0
-0.000581522316279 -0.0710709239348 0
-0.000181604051308 -0.074158363373 0
8.01217297481e-05 -0.0767873282453 0
0.00025132241601 -0.0789494881962 0
0.000338316069022 -0.0806353178076 0
0.000380317956328 -0.081845711938 0
0.00034744670511 -0.0825760900051 0
0.000270469100188 -0.0828194485698 0
0.000110908044843 -0.0825843444533 0
5.86312906802e-05 -0.0818634751167 0
8.01160214842e-05 -0.0806637626552 0
0.000164937847893 -0.0789889588174 0
0.000320115452243 -0.0768352346763 0
0.00060115065971 -0.07422119607 0
0.000976238454593 -0.0711319730967 0
0.00142335735979 -0.0675771245878 0
0.00204765497094 -0.0635706702306 0
0.0027186579029 -0.0591017841393 0
0.00347707486125 -0.0541599740359 0
0.00440995631141 -0.0487768875923 0
0.00541718228661 -0.0429080734553 0
0.00638826726345 -0.0365275827003 0
0.00698085236164 -0.0294162321862 0
0.00659363068385 -0.0251628988 0
0.00620309077881 -0.0215240756436 0
0.00565407336311 -0.0184078682376 0
0.00508819250293 -0.0157726202853 0
0.0045188287786 -0.0134971120006 0
0.00394391383565 -0.011509193614 0
0.00338721649384 -0.0097932623557 0
0.00288070369965 -0.00829206299932 0
0.00236619224913 -0.0069856575518 0
0.00188808338364 -0.00584885649732 0
0.00143571925951 -0.00486651480753 0
0.00100787620305 -0.00400919448985 0
0.000609879124992 -0.00326645334547 0
0.000251012140913 -0.00261856518892 0
-9.62313214598e-05 -0.0020649070977 0
-0.000407853028338 -0.00158847795516 0
-0.000700892807305 -0.00119149005846 0
-0.000960024463804 -0.000851203548005 0
-0.00120325889855 -0.000565320372527 0
-0.00141911246251 -0.00032408451259 0
-0.00162226386253 -0.00013071229256 0
-0.00179970235113 2.95991911204e-05 0
-0.00196162630274 0.000150229072813 0
-0.0021021794354 0.00024938742941 0
-0.00223338762028 0.000320114526455 0
-0.00235167072603 0.000368380215149 0
-0.00245309914772 0.000399180031484 0
-0.00254541070548 0.00041047690999 0
-0.00262522762348 0.000409313355488 0
-0.00269775355618 0.000393978165046 0
-0.00275935999897 0.000369153901614 0
-0.00281476718121 0.000332998482744 0
-0.00286186796844 0.000290371306211 0
-0.00290333997528 0.000239424531796 0
-0.00293937896847 0.000181846977453 0
-0.00296828284451 0.000120352132658 0
-0.00299306249131 5.37404308039e-05 0
-0.00301259044375 -1.44752890334e-05 0
-0.00302792233597 -8.60672597016e-05 0
-0.00303883619398 -0.000157631860493 0
-0.00304605279234 -0.000229814224261 0
-0.00305011227635 -0.00030095441608 0
-0.00305173519106 -0.00037031452234 0
-0.00305178990894 -0.00043768468243 0
-0.00298548301095 -0.000503148095726 0
-0.00291450253168 -0.000503661815463 0
-0.00283918162175 -0.000506782392403 0
-0.00275840092065 -0.00051450138566 0
-0.00266811593919 -0.00053223433349 0
-0.00255911292337 -0.00056075689504 0
-0.00242718402253 -0.000600271951709 0
-0.00224763114599 -0.000651377938911 0
-0.00200472758883 -0.000700543286703 0
-0.00167301395931 -0.000728948359885 0
-0.00121706715639 -0.000692877798633 0
-0.000666862579682 -0.000520129314478 0
-0.00253168384734 0.000183674418521 0
0.00441793106116 -0.000305468205556 0
-0.00417082930881 -0.000354048066185 0
-0.00765536368949 -0.00634621172196 0
-0.00904084527472 -0.0250288989375 0
0.000471873229034 -0.0370444595436 0
0.00976878618043 -0.0233520467737 0
0.0077725166336 -0.00551581446055 0
-0.00267222881954 -4.57001920285e-05 0
0.00368691862188 2.21718420812e-06 0
0.00464651075824 -0.00139704297679 0
0.00805734210824 -0.0158813262435 0
-0.00302020605143 0.000400839183207 0
-0.00441558087277 -0.00209499529841 0
0.00595022079736 -0.0467016815843 0
-0.00798389137949 -0.0171398108583 0
-0.00485697475809 -0.0483103782539 0
-0.00275288236781 0.000335563616342 0
0.00373433054281 -0.000128719117631 0
0.00407795128534 -0.00412061197783 0
-0.00292908807042 7.94411152126e-05 0
0.00725219720983 -0.0315277332352 0
-0.0036214647327 -0.00577083907993 0
-0.000443069963066 -0.0622420508971 0
-0.00706424329533 -0.035986994209 0
0.00330680414427 -0.00890227395237 0
-0.00249380363902 -0.000810633473186 0
0.0052204543406 -0.0505845915855 0
-0.0030580016834 -0.0120736885344 0
0.00249820888911 -0.0639307714898 0
-0.00469445429798 -0.0528562573588 0
0.00569205958364 -0.00163005303981 0
0.00317564985947 -0.000761695499747 0
-0.00283112427148 -0.000260576839669 0
0.00346720347856 -8.98652970324e-06 0
0.00374544354117 -0.000160935349017 0
-0.00218859858263 -0.000120507334949 0
-0.00271341448056 0.000467211004778 0
0.00336268477654 2.20040294169e-05 0
-0.00279011346043 0.000173069721935 0
0.00946438773552 -0.0114288167872 0
0.00601479585078 -0.0281001783885 0
-0.00929243908519 -0.0123941273725 0
-0.00487958519092 -0.0287093431431 0
-0.00582719001714 -0.00213707796366 0
0.00401042433413 -0.0194950368614 0
-0.00225137594425 -0.00268266164272 0
-0.00399212333894 -0.022785248672 0
-0.00248142442117 -0.0637181869423 0
0.00279451881313 -0.00223897551205 0
-0.00308145863776 0.000103505114142 0
-0.00258558715234 0.000373404249619 0
0.0032924027232 -0.0618181905518 0
-0.00284723062612 -4.07263533742e-05 0
0.00337898985102 2.03888379027e-05 0
0.00304346724751 -0.000242620747225 0
-0.00274708779427 0.000388652039234 0
0.00850237685238 -0.0363944265706 0
-0.00694661451882 -0.00993592212075 0
0.00251339346698 -0.0510773096259 0
-0.00767724455523 -0.0389086875313 0
-0.00389561610134 -0.00062996532167 0
-0.0015020134886 -3.67473034608e-05 0
0.00286224187924 -0.000244446518593 0
-0.00554050931451 -0.0116701430852 0
0.00665044987527 -0.00916549468779 0
-0.00359302772529 -0.000707856131946 0
-0.00566884835001 -0.0030968834412 0
0.0064709825719 -0.00398325222388 0
-0.000451836437154 -0.0153037222062 0
0.00177944861315 -0.00515140699701 0
-0.00220401177752 -9.98052078253e-05 0
0.00367981908857 -0.0407720414912 0
-0.00104127581943 -0.00737162741294 0
0.000458576006109 -0.0714379140938 0
-0.00314064290309 -0.0358045902325 0
0.00400682708304 -4.6677336006e-05 0
-0.00258827610756 0.000139337901544 0
0.00686215151046 -0.00736658859681 0
0.00607175149338 -0.00321590085746 0
0.00118022821709 -0.0120879395772 0
-0.00265386193185 -0.0509316271421 0
-0.00263716331729 -0.000318794780232 0
0.00366425854827 -7.98853915128e-05 0
-0.00285003233662 0.000339032460843 0
-0.00220427636957 3.8699889322e-05 0
-0.00214394131211 -0.000199659437159 0
0.00194292560632 -0.0270466920595 0
0.0045733044863 -0.000524241867559 0
-0.000828999759066 -0.00418557648567 0
-0.00232492976555 -0.0640329740235 0
-0.0015948294051 -0.00168456839638 0
-0.00114869411801 -0.0169929470006 0
-0.000818927989633 -0.0723084800389 0
-0.00346041625819 0.000133161547866 0
0.00963499735501 -0.0234971179297 0
-0.0058607994407 -0.00467149402142 0
-0.00925429613134 -0.0260772385339 0
-0.00162908234588 -0.0485284931355 0
0.00405937500186 -0.000625055494904 0
0.00230684438322 -0.00144617814416 0
-0.00253636918024 0.000443563299263 0
0.00288100035661 -0.0127823581085 0
-0.00619045484264 -0.00519097602766 0
0.00169452103417 -0.0704683269183 0
0.00225404673535 -0.0599482156648 0
0.00300539840487 -8.49017638482e-05 0
-0.00281049675706 0.000285128568103 0
0.00294123237326 -0.000294822560031 0
-0.00156982523989 -0.000227214417345 0
0.000665922056874 -0.0074195377862 0
0.00132109508301 -0.00357934143774 0
-0.00170613966864 -0.0006059171743 0
-0.00218635551608 0.000168454936773 0
0.000382631655315 -0.0105635963988 0
0.00256403671296 -0.000603958643629 0
0.00890636067527 -0.0103480624386 0
0.00375782473698 -0.000194809756953 0
-0.00239592194786 -0.000322787361124 0
0.00448997809636 -0.00169457341001 0
-0.00266582415522 0.000441673052628 0
-0.00179029088817 -0.0595639633602 0
0.00213187749639 -0.0521716398179 0
0.00123192648905 -0.0727254718641 0
0.00474797101064 -0.0136424505636 0
-3.96957046664e-05 -0.0168619895716 0
-0.000377603036065 -0.027162115952 0
0.00322409813533 1.40479557743e-05 0
-0.00287291463418 9.752583554e-05 0
-0.00842806033002 -0.0158861536712 0
0.00809023695826 -0.019014454202 0
-0.00292472491534 -0.000361422605335 0
0.00340039596921 4.59966623471e-06 0
0.00750157633656 -0.0354814036977 0
-0.00892892143883 -0.0129235686157 0
-0.00648746665535 -0.0364859742849 0
-0.0050416679812 -0.00148512469888 0
0.00430152322574 -0.00251014328427 0
-0.00299474520905 0.000328519493644 0
0.00538132938904 -0.00125323199965 0
0.00767928071068 -0.0226747379097 0
-0.00398892413567 -0.00364250716657 0
-0.00246033605 -0.0568427530043 0
-0.00744160062392 -0.0260887407842 0
0.00775370493424 -0.00759772761927 0
-0.00392399772313 -0.0176743994751 0
-0.00500297517886 -0.00176245949956 0
0.00480533443675 -0.0409585390919 0
-0.00293066427061 -0.000192891671809 0
0.00336135568719 -1.33911919592e-06 0
0.00372863581141 1.65134716188e-05 0
-0.00269940459646 0.000148583940014 0
-0.00281362874693 0.000429634227194 0
0.00686883519655 -0.00335132241469 0
0.00252209762804 -0.0260293020206 0
-0.000860641222306 -0.00276293882691 0
-0.00123731583461 -0.0709083688797 0
-0.00821572272639 -0.00709026641647 0
0.00396676320453 -0.000535511528851 0
-0.00359101073074 -0.000226817894287 0
0.00360788087594 -0.00142777158061 0
0.00384589424205 -5.80532846627e-05 0
-0.00249984003142 -7.45098690013e-05 0
-0.00278550426328 0.00044945870249 0
0.00159036175561 -0.00233212892516 0
-0.00323790710125 0.000255016356803 0
-0.00234721582148 0.00035072217833 0
0.00966203942545 -0.0151706888164 0
0.00549003021027 -0.0521879419742 0
-0.00311717512192 -0.00167208471964 0
-0.00544644194573 -0.0168907283215 0
-0.0044209835507 -0.0549546392697 0
-0.00554461953495 -0.00695379548134 0
-0.00208553933283 1.74532811437e-05 0
0.00379838891833 -0.00019541785827 0
0.00465896561193 -0.0093081286176 0
0.00354002215666 1.59211307908e-06 0
-0.00276153397474 -0.000140344133241 0
0.00491913084759 -0.000743947660952 0
-0.00707681137238 -0.0222168326532 0
0.00932001582526 -0.0148303104114 0
-0.00473962038258 -0.000964696187655 0
0.00839925546997 -0.0067684914692 0
-0.00694888853669 -0.00396558255842 0
-0.00146248857916 -0.0274755447078 0
-0.00972497799348 -0.0192569591291 0
-0.00585966141966 -0.045215538012 0
0.00365863393394 -0.00607645891691 0
0.00337615252249 -5.28069607742e-05 0
-0.00276631302709 0.000293262382431 0
0.00714300211612 -0.0108703629988 0
0.00351178334938 3.18301034514e-05 0
-0.00276199207402 4.37119766021e-05 0
-0.0027723949383 -0.000314009671497 0
0.00653497250401 -0.0410524642655 0
-0.00346728558274 -0.00863707202166 0
0.00117093887549 -0.0645179672427 0
0.00352102954573 -0.000342945551519 0
-0.00203809595683 -0.000360526781907 0
-0.000798021181271 -0.0448732318065 0
-0.00274643208203 -0.000378978950031 0
0.00355351516361 -3.61645371667e-05 0
0.000743045753643 -0.0354030901715 0
7.95461748504e-05 -0.00577300472719 0
-8.19589371261e-05 -0.0758199709293 0
-0.00271184967705 0.000283275946911 0
-0.00281812041509 0.000223807121737 0
0.00383144246015 -0.0543059304778 0
0.00415517928946 -0.000161688098135 0
0.00183545588939 -0.066701273992 0
0.00657689681473 -0.00284323688703 0
-0.0038815809793 -0.0386404461512 0
-0.00599911449091 -0.00293658968026 0
0.00475321855437 -0.0323470845535 0
-0.0019189083953 -0.0054512562053 0
-0.000453025321108 -0.0685060902865 0
-0.000236539013189 -0.00978034700315 0
-0.00945943579385 -0.0184377702359 0
0.00308278153354 -0.000751628557751 0
0.00275502817591 -0.000283287833595 0
-0.0027515972204 0.000378086870315 0
-0.00138079590867 -0.0010672873491 0
0.00102226393977 -0.0130902357367 0
-0.000352764707723 -0.0210508527653 0
0.000743301523569 -0.0216343594476 0
0.00221308802442 -0.0009361046421 0
0.00330020326627 1.06342508897e-05 0
-0.00291296350893 -4.24157465841e-05 0
-0.00258825048631 0.000447592119493 0
0.00589042683727 -0.00462736537685 0
0.00307648497646 -3.00720354466e-05 0
-0.00285722658301 0.000202178831272 0
-0.00351797698515 -8.87239748898e-05 0
0.00911324031805 -0.0304410245615 0
-0.00589871223284 -0.00671207093738 0
0.000124556975375 -0.051660303994 0
-0.00853720435785 -0.0333761546817 0
0.00244580732161 -0.000404006559474 0
-0.00109227139854 -5.78575037777e-05 0
0.00305806345249 -0.00342732243006 0
-0.00456302594897 -0.0424184798982 0
-0.00263082110694 0.000212374499955 0
0.00383623193138 -0.0590837058131 0
-0.00612272545926 -0.0126648998392 0
-0.00618372235116 -0.0469491843552 0
-0.00352791732071 -0.000988556681095 0
-0.000808256095339 -9.61156355433e-05 0
0.00165799324747 -0.000194046948967 0
-0.00137073420185 -0.000104253329163 0
0.00340486271876 -0.00041018866526 0
-0.00275720929619 0.000432636340065 0
0.010023060047 -0.0187883087304 0
0.00712885263316 -0.0442186573355 0
-0.00567156888104 -0.0294995264498 0
-0.00361885321069 -1.75951310646e-05 0
0.00520439567841 -0.0246785731868 0
-0.00250940706112 -0.0039364928143 0
-0.00160590140736 -0.0647154798255 0
0.00375682877998 -6.73798893329e-05 0
-0.0025703985739 -0.000175261380731 0
0.000518337628268 -0.00525623457932 0
0.00277246827519 -0.0159590069854 0
0.00397818315082 -9.37692426187e-05 0
-0.00239400462719 3.49997902645e-05 0
-0.00187743845109 -0.000143252963922 0
0.00117306787555 -0.0418565094776 0
0.000315206378544 -0.00716740120745 0
-0.000266573577498 -0.0385633172185 0
0.000328549782369 -0.0758925576171 0
0.00338922679481 -0.0337695402507 0
0.00546584127003 -0.00767086739281 0
0.00371884488563 -0.00018732763346 0
-0.00249074700189 -0.0004211842593 0
0.00810249494254 -0.0250442340383 0
0.00393670013885 -0.00259609900201 0
0.00562971441956 -0.00198507842043 0
-0.00129837762218 -0.00735979344716 0
0.00534841923578 -0.0190005150743 0
-0.00309082694976 -0.00131449980139 0
-0.00821434720222 -0.00964061034025 0
-0.00212652107237 6.91136400522e-05 0
-0.00871600120589 -0.00909746664562 0
-0.00300744260686 0.000363684685111 0
0.0065175104395 -0.0167059738789 0
-0.00201000790116 -0.000341442493887 0
-0.000866637581577 -0.000292366096642 0
0.00170939319688 -0.00041838688682 0
0.00337594780666 -3.02268074478e-06 0
-0.00294707782267 -0.000283647999073 0
0.00385303796061 -0.000889779607798 0
0.000884483408935 -0.00938299412787 0
-0.00443362175699 -0.00276642861291 0
-0.00283046936056 -0.000406088121375 0
0.00347271651166 -2.53665476889e-06 0
-0.0027242358457 -0.000736847537646 0
0.0040784528722 -0.000428323094068 0
-0.00265405209606 -2.93465959119e-05 0
-0.00343381481006 -0.00826655397207 0
0.00503058696841 -0.00520299954806 0
-0.00445729537739 -0.000676807572429 0
-0.00283447837959 0.000448006786949 0
0.00931567496786 -0.0283560827403 0
-0.00821615579803 -0.0317162646435 0
-0.00133991711974 -0.0124438732354 0
-9.5027959448e-05 -0.0538279461911 0
0.00454781522632 -0.0556998457297 0
0.00383005286094 5.47562546956e-07 0
-0.00262107909587 5.30525706828e-05 0
0.00376087088748 -0.00173929498189 0
0.00262904062798 -0.0413972805737 0
-0.000642996797831 -0.065528986632 0
-0.00811372652622 -0.00857403282594 0
-0.00768764587032 -0.0130928461265 0
-0.00654166825372 -0.0438342221824 0
-0.00407244820823 -0.00113448633841 0
0.00756119111044 -0.041016961377 0
0.000425534553659 -0.0581191617492 0
0.000975466408613 -0.0755439872619 0
0.00463243865266 -0.00109568144595 0
0.00343286698524 6.97689169248e-06 0
-0.00283938102033 -0.00015052854928 0
-0.000784535939127 -0.00209940763966 0
-0.00021218194417 -0.0036273664706 0
-0.00112496362163 -0.0697406020326 0
-0.000652674791734 -0.074878995898 0
-0.00191994778174 -0.000115312246047 0
0.00348715266141 -0.000198644308095 0
0.00707253921517 -0.00551431705836 0
0.00354432497614 -2.29097166323e-05 0
-0.00275925230574 -0.00025966324383 0
0.0045272930971 -0.000746714350947 0
-0.00248256281693 -0.0271294333498 0
0.00312646249965 -0.0169280534796 0
-0.00674360379315 -0.00446790073902 0
-0.00177015590271 -0.0401178135713 0
0.00163065402732 -0.00179938073412 0
0.00262368570826 -0.0558030974074 0
-0.00240264350314 0.000397627138867 0
-0.00296172835408 -0.000414900456256 0
0.00338373428398 1.90982675441e-05 0
-0.00633234454127 -0.0213776501193 0
-0.00344859718046 -0.0572273017011 0
-0.00336715205434 -0.00255347612189 0
-0.00271199426342 0.000249666079153 0
0.00494253958486 -0.000708994174443 0
0.00379521540031 -3.53071565345e-05 0
0.00337503413196 3.10192932837e-05 0
-0.00282002517833 5.18608193143e-05 0
0.00293702497072 -0.00112990045204 0
0.000969095757893 -0.00293221690117 0
-0.00216927657233 0.000252756645943 0
0.00801907025538 -0.00759524573088 0
0.00897128327775 -0.0197760417734 0
-0.00506092806679 -0.0031951826598 0
-0.00898443603995 -0.0222549271015 0
-0.00340190317662 -0.0488496073816 0
-0.00320243688586 0.000308082255328 0
-0.00753708453926 -0.0398935074086 0
-0.00389249465786 -0.000170922791375 0
0.0082264594593 -0.0369223903853 0
-0.00335406076058 -0.000315910577819 0
-0.00540847973811 -0.00862682235012 0
0.0035349667295 5.1920004477e-06 0
0.00972388828269 -0.0265194177872 0
-0.00275066439029 0.000216843927554 0
-0.00702073321406 -0.00637832759771 0
-0.00913762200401 -0.0288228647134 0
0.000182625488824 -0.0446833412447 0
0.00338811440703 -0.011285962253 0
0.00522366052898 -0.0100639312416 0
-0.00232208226243 -0.00128507568782 0
-0.00299418609274 -0.0148881022462 0
-0.00386848504458 -0.057708095236 0
0.000962555655205 -0.0659275928668 0
0.00107318254105 -0.0715835732739 0
0.00863085584944 -0.0270249811191 0
-0.00480734237955 -0.00505246460248 0
-0.001194794697 -0.0558814694043 0
-0.00822338147704 -0.0307511289538 0
0.00274795464021 -0.000204600255534 0
-0.00280117235936 0.000330360753288 0
-0.00266004547067 0.000467753611881 0
0.00857413477768 -0.00742567788663 0
0.00452464410686 -0.0457981431736 0
0.00119932375246 -0.069180736533 0
0.00495085934276 -0.00351244480676 0
0.00247183137067 -0.000449412291861 0
3.75868287776e-05 -0.00468209557237 0
-0.000374972848613 -0.0760108057963 0
0.00422769143124 -0.000144093912076 0