# vtk DataFile Version 2.0
Generated with Solid Solver
ASCII
DATASET UNSTRUCTURED_GRID
POINTS 1163 float 
0.0 3.5 0.0
2.2 3.5 0.0
2.2 4.0 0.0
0.0 4.0 0.0
0.0687499999999 3.5 0.0
0.1375 3.5 0.0
0.20625 3.5 0.0
0.275 3.5 0.0
0.343749999999 3.5 0.0
0.412499999999 3.5 0.0
0.481249999999 3.5 0.0
0.549999999999 3.5 0.0
0.618749999998 3.5 0.0
0.687499999998 3.5 0.0
0.756249999998 3.5 0.0
0.824999999998 3.5 0.0
0.893749999998 3.5 0.0
0.962499999997 3.5 0.0
1.03125 3.5 0.0
1.1 3.5 0.0
1.16875 3.5 0.0
1.2375 3.5 0.0
1.30625 3.5 0.0
1.375 3.5 0.0
1.44375 3.5 0.0
1.5125 3.5 0.0
1.58125 3.5 0.0
1.65 3.5 0.0
1.71875 3.5 0.0
1.7875 3.5 0.0
1.85625 3.5 0.0
1.925 3.5 0.0
1.99375 3.5 0.0
2.0625 3.5 0.0
2.13125 3.5 0.0
2.2 3.56430812579 0.0
2.2 3.6227083524 0.0
2.2 3.67574343203 0.0
2.2 3.72390623714 0.0
2.2 3.76764438299 0.0
2.2 3.80736436348 0.0
2.2 3.84343531161 0.0
2.2 3.87619247056 0.0
2.2 3.90594026646 0.0
2.2 3.93295517223 0.0
2.2 3.9574882542 0.0
2.2 3.97976750927 0.0
2.18000003888 4.0 0.0
2.15999995974 4.0 0.0
2.13999995594 4.0 0.0
2.12000003893 4.0 0.0
2.0999999813 4.0 0.0
2.07999993507 4.0 0.0
2.06000001965 4.0 0.0
2.04000002354 4.0 0.0
2.01999993997 4.0 0.0
1.99999999426 4.0 0.0
1.98000004623 4.0 0.0
1.95999996625 4.0 0.0
1.93999996787 4.0 0.0
1.92000005069 4.0 0.0
1.90000001292 4.0 0.0
1.87999994967 4.0 0.0
1.86000003245 4.0 0.0
1.84000003166 4.0 0.0
1.81999995194 4.0 0.0
1.80000002065 4.0 0.0
1.78000005962 4.0 0.0
1.75999997703 4.0 0.0
1.73999998149 4.0 0.0
1.72000006236 4.0 0.0
1.70000000651 4.0 0.0
1.67999995967 4.0 0.0
1.66000004242 4.0 0.0
1.64000004304 4.0 0.0
1.61999996152 4.0 0.0
1.6000000096 4.0 0.0
1.58000006667 4.0 0.0
1.55999998704 4.0 0.0
1.53999998381 4.0 0.0
1.52000006764 4.0 0.0
1.5000000299 4.0 0.0
1.47999996242 4.0 0.0
1.46000004337 4.0 0.0
1.4400000454 4.0 0.0
1.41999996386 4.0 0.0
1.40000002834 4.0 0.0
1.38000006734 4.0 0.0
1.35999998576 4.0 0.0
1.33999998537 4.0 0.0
1.32000006658 4.0 0.0
1.30000001585 4.0 0.0
1.27999996279 4.0 0.0
1.26000004759 4.0 0.0
1.24000004493 4.0 0.0
1.2199999616 4.0 0.0
1.20000000906 4.0 0.0
1.18000006792 4.0 0.0
1.15999998616 4.0 0.0
1.13999999119 4.0 0.0
1.12000007157 4.0 0.0
1.1 4.0 0.0
1.07999992843 4.0 0.0
1.06000000881 4.0 0.0
1.04000001384 4.0 0.0
1.01999993209 4.0 0.0
0.999999990948 4.0 0.0
0.98000003841 4.0 0.0
0.959999955072 4.0 0.0
0.939999952416 4.0 0.0
0.920000037214 4.0 0.0
0.899999984154 4.0 0.0
0.879999933427 4.0 0.0
0.860000014636 4.0 0.0
0.840000014246 4.0 0.0
0.819999932662 4.0 0.0
0.79999997166 4.0 0.0
0.780000036145 4.0 0.0
0.759999954604 4.0 0.0
0.73999995663 4.0 0.0
0.72000003758 4.0 0.0
0.699999970103 4.0 0.0
0.679999932361 4.0 0.0
0.660000016189 4.0 0.0
0.640000012962 4.0 0.0
0.61999993333 4.0 0.0
0.599999990406 4.0 0.0
0.58000003848 4.0 0.0
0.559999956964 4.0 0.0
0.539999957581 4.0 0.0
0.520000040329 4.0 0.0
0.499999993489 4.0 0.0
0.479999937647 4.0 0.0
0.460000018512 4.0 0.0
0.440000022972 4.0 0.0
0.419999940378 4.0 0.0
0.399999979352 4.0 0.0
0.380000048063 4.0 0.0
0.359999968347 4.0 0.0
0.339999967553 4.0 0.0
0.320000050328 4.0 0.0
0.299999987077 4.0 0.0
0.279999949312 4.0 0.0
0.260000032129 4.0 0.0
0.240000033752 4.0 0.0
0.219999953776 4.0 0.0
0.200000005737 4.0 0.0
0.180000060031 4.0 0.0
0.159999976465 4.0 0.0
0.139999980354 4.0 0.0
0.120000064926 4.0 0.0
0.100000018697 4.0 0.0
0.0799999610675 4.0 0.0
0.0600000440571 4.0 0.0
0.0400000402596 4.0 0.0
0.0199999611169 4.0 0.0
0.0 3.97976750927 0.0
0.0 3.9574882542 0.0
0.0 3.93295517223 0.0
0.0 3.90594026646 0.0
0.0 3.87619247056 0.0
0.0 3.84343531161 0.0
0.0 3.80736436348 0.0
0.0 3.76764438299 0.0
0.0 3.72390623714 0.0
0.0 3.67574343203 0.0
0.0 3.6227083524 0.0
0.0 3.56430812579 0.0
0.249757963562 3.75212589829 0.0
1.94999996706 3.74954522137 0.0
0.488710285893 3.75947702441 0.0
0.726520490699 3.7655965719 0.0
0.967283134849 3.7597072979 0.0
1.20619032017 3.75831098673 0.0
1.45842774915 3.76733088374 0.0
1.69012076678 3.7622332834 0.0
0.130754044069 3.86878249167 0.0
2.06924595593 3.86878249167 0.0
1.8299999918 3.84622455633 0.0
1.56816462369 3.85034872999 0.0
0.369913859351 3.84868157925 0.0
0.608733620231 3.84706187144 0.0
1.33069778866 3.84790908234 0.0
0.84323446252 3.84762979148 0.0
1.08873170817 3.84705870913 0.0
0.250539365135 3.87785524304 0.0
1.94967747948 3.87849609822 0.0
1.73218750075 3.8916046151 0.0
0.468661874066 3.89189322974 0.0
1.47574192429 3.89639134117 0.0
0.704258110321 3.8963912684 0.0
1.18331258449 3.8976320365 0.0
0.949999953744 3.89208018478 0.0
1.64795374468 3.91749779939 0.0
0.548928463645 3.91905583847 0.0
1.38619509199 3.91928594438 0.0
0.788926872841 3.91906062101 0.0
1.27071160784 3.91777932845 0.0
1.02999997296 3.91685174433 0.0
1.81733541416 3.69950870754 0.0
1.86999999106 3.91823503401 0.0
0.071252620538 3.93011431841 0.0
2.12874737946 3.93011431841 0.0
2.07400690796 3.74293885365 0.0
0.125993092043 3.74293885365 0.0
0.32995676804 3.92118147353 0.0
2.00999996712 3.92542383197 0.0
0.190000032884 3.92542383197 0.0
1.56698738743 3.72218882919 0.0
1.33000000474 3.72531695685 0.0
0.848014510843 3.71986098938 0.0
1.09024665585 3.72285801424 0.0
0.610276609989 3.72290563624 0.0
1.54999998543 3.92414142844 0.0
0.629999973146 3.92414137652 0.0
0.869999974031 3.92414141814 0.0
1.11000003579 3.92414141267 0.0
1.79030638642 3.92649353654 0.0
0.370434802927 3.72513294336 0.0
0.410903135411 3.92892991244 0.0
1.33000002597 3.93737911571 0.0
0.129927648482 3.94112154503 0.0
2.07007235152 3.94112154503 0.0
1.93000000928 3.93875927586 0.0
0.26999999072 3.93875927586 0.0
1.40966706061 3.83880068991 0.0
0.770332962441 3.83880062149 0.0
1.24904900022 3.84293377683 0.0
1.01033287484 3.83880060723 0.0
0.530342681434 3.83880307444 0.0
0.189895273961 3.63486992823 0.0
2.00989835291 3.62845703161 0.0
0.998888153878 3.61665036233 0.0
1.47894673873 3.61675180774 0.0
0.51733910646 3.62937665489 0.0
0.705112628302 3.618743723 0.0
1.66672137035 3.63168728155 0.0
1.18508242495 3.61871739348 0.0
1.71000003443 3.94408608591 0.0
0.489999965568 3.94463856597 0.0
1.44983363802 3.94422347836 0.0
0.729999997105 3.94465012565 0.0
1.21016639734 3.94422345842 0.0
0.928621800545 3.94440037102 0.0
2.00626203014 3.81543543551 0.0
0.193627962274 3.81528928332 0.0
1.66628164144 3.83559795895 0.0
1.75661718781 3.81065958113 0.0
1.61143779865 3.94859227761 0.0
0.991673865748 3.95161238438 0.0
0.0604617941233 3.86281264864 0.0
2.13953820588 3.86281264865 0.0
0.300965570716 3.8114148258 0.0
0.2970894797 3.66361086085 0.0
0.398842167194 3.60449226805 0.0
1.51000004877 3.95218393067 0.0
1.90135619383 3.81213273629 0.0
0.669405272842 3.95495208979 0.0
1.07142780558 3.94866325309 0.0
0.592085094025 3.94901139323 0.0
0.831051660929 3.94633985879 0.0
1.14940528892 3.9549521224 0.0
0.44409344258 3.82719938178 0.0
1.49646539728 3.82376850413 0.0
0.683434082651 3.82631713605 0.0
0.92337834777 3.8234861632 0.0
1.16343437877 3.82631615351 0.0
1.90749084149 3.65350700271 0.0
1.8278758005 3.95083911942 0.0
0.37243073327 3.95235211027 0.0
1.29345662549 3.60569899261 0.0
0.813407949226 3.60572380122 0.0
1.29317153636 3.96216077293 0.0
1.367704599 3.96055764734 0.0
1.97071235041 3.96038324024 0.0
0.22928764959 3.96038324024 0.0
2.10610581798 3.66047411138 0.0
0.0938941820177 3.66047411138 0.0
1.67000000105 3.95862953468 0.0
1.74869816704 3.96079301687 0.0
0.531976761939 3.96138655466 0.0
0.451361042387 3.96112774725 0.0
0.771976832233 3.96138887156 0.0
1.88843481911 3.95881554986 0.0
1.61277513709 3.78538823015 0.0
2.13311214501 3.79435403671 0.0
0.0668878549946 3.79435403671 0.0
1.76678797151 3.60286552601 0.0
0.311702446283 3.9611157379 0.0
1.02877762737 3.96159282031 0.0
1.40830122607 3.96143175203 0.0
1.25214210333 3.957355862 0.0
1.59476493393 3.9048774062 0.0
1.56950979124 3.96148017208 0.0
0.890017020275 3.96125792969 0.0
2.03089110475 3.96040268709 0.0
0.169108895255 3.96040268709 0.0
0.939722125942 3.68539157065 0.0
1.41686981874 3.69192854313 0.0
0.0426348006718 3.96101756902 0.0
2.15736519933 3.96101756902 0.0
1.36077308019 3.79177204211 0.0
0.817982383499 3.78962669257 0.0
1.05834720932 3.78780184893 0.0
0.578349529346 3.78781530011 0.0
1.77992711518 3.87652731382 0.0
0.417982153133 3.87594990465 0.0
1.84363633012 3.77741329286 0.0
1.52244994479 3.87704541475 0.0
0.657426528912 3.87734838249 0.0
1.13742651778 3.87734834025 0.0
0.898116026439 3.8800466833 0.0
1.56984259435 3.64465823131 0.0
1.08983016076 3.6446495206 0.0
0.609942357805 3.64483976081 0.0
1.29451769374 3.79627773068 0.0
0.0893439668432 3.96574839433 0.0
2.11065603316 3.96574839433 0.0
2.01422398896 3.86980625824 0.0
0.185776011038 3.86980625824 0.0
0.305957237756 3.87340573745 0.0
1.72977480551 3.68665973332 0.0
1.25418096296 3.69351129461 0.0
0.629999973146 3.96272981435 0.0
1.11000003579 3.96272983221 0.0
0.772975283819 3.69297597031 0.0
1.89089074715 3.86951346173 0.0
0.445448577516 3.69456159386 0.0
1.82621986864 3.89678318705 0.0
2.07135424223 3.81165410377 0.0
0.128645757768 3.81165410377 0.0
0.373320289473 3.89968791662 0.0
1.79000004014 3.96541718891 0.0
0.383302070088 3.78976392323 0.0
0.409457623385 3.96502881851 0.0
1.55531527123 3.78787141386 0.0
1.34861332978 3.89383287415 0.0
0.593245985735 3.89483466551 0.0
0.833245353375 3.89479604398 0.0
1.0732444554 3.8948349405 0.0
0.911896623122 3.59194725763 0.0
0.187580554011 3.70699710313 0.0
2.01241944599 3.70699710313 0.0
1.39201907571 3.59233063354 0.0
2.09635520798 3.90516200201 0.0
0.103644792024 3.90516200201 0.0
1.89086147526 3.72621461413 0.0
1.02102684616 3.70044819701 0.0
1.49813234221 3.70194667869 0.0
0.53965669049 3.70593418829 0.0
1.63719578665 3.69772473547 0.0
0.685447658936 3.70127585046 0.0
1.16541741817 3.70128744764 0.0
0.901649266036 3.76287226775 0.0
0.992351690321 3.90662993531 0.0
1.69131894868 3.90657323657 0.0
1.9699561555 3.91599371502 0.0
0.230043844497 3.91599371502 0.0
1.61980840676 3.85005402918 0.0
2.04685187594 3.90639759008 0.0
0.153148124058 3.90639759008 0.0
0.512139828486 3.90538520837 0.0
1.43057458921 3.90702644399 0.0
0.749149996349 3.90689574876 0.0
[...]
POINT_DATA 1163
VECTORS Displacement float
0.0 0.0 0
0.0 0.0 0
0.00443418535239 -0.00118618002557 0
-0.00638903372114 -0.000671505739081 0
0.0 0.0 0
0.0 0.0 0
0.0 0.0 0
0.0 0.0 0
0.0 0.0 0
0.0 0.0 0
0.0 0.0 0
0.0 0.0 0
0.0 0.0 0
0.0 0.0 0
0.0 0.0 0
0.0 0.0 0
0.0 0.0 0
0.0 0.0 0
0.0 0.0 0
0.0 0.0 0
0.0 0.0 0
0.0 0.0 0
0.0 0.0 0
0.0 0.0 0
0.0 0.0 0
0.0 0.0 0
0.0 0.0 0
0.0 0.0 0
0.0 0.0 0
0.0 0.0 0
0.0 0.0 0
0.0 0.0 0
0.0 0.0 0
0.0 0.0 0
0.0 0.0 0
0.000780466684112 -0.000705921765028 0
0.00143749575687 -0.00101549298106 0
0.0020192477687 -0.00116388760423 0
0.00249142680189 -0.00122590839625 0
0.00287468995097 -0.00124016810997 0
0.00319103285851 -0.00123251846735 0
0.00344871445332 -0.00122055627432 0
0.00367039277477 -0.00120736252204 0
0.00385922762012 -0.00119659158487 0
0.00402566168576 -0.00119044667144 0
0.00417470066369 -0.00118736071737 0
0.00431026982579 -0.00118620525436 0
0.0044341660851 -0.00106331899921 0
0.00443347106747 -0.000939488111415 0
0.00443150881937 -0.000815507019638 0
0.00442780913114 -0.000692077348453 0
0.0044225746453 -0.000570396144106 0
0.00441618236583 -0.000451231366302 0
0.00440816681533 -0.000335041476523 0
0.00439975925772 -0.00022265081687 0
0.00439004661777 -0.000114242091202 0
0.00438043984853 -1.00994197131e-05 0
0.00436934671386 8.97954865417e-05 0
0.00435757571465 0.000184124362668 0
0.0043457965742 0.000273279572127 0
0.00433220238581 0.000357218639939 0
0.00431816772568 0.000435316334287 0
0.004300918488 0.000507728500744 0
0.00428178707284 0.000573056002357 0
0.00425875491375 0.000632171879451 0
0.00423220705934 0.000682128115535 0
0.00419839522362 0.000723032277187 0
0.00415922800631 0.000753114236771 0
0.00411561022487 0.000769711101004 0
0.00406078195688 0.000776945535682 0
0.00399718848616 0.000764754604625 0
0.00391899952428 0.000737642883472 0
0.00383174668979 0.000687115780055 0
0.00372410447476 0.000615796638963 0
0.00360365795751 0.000512943261387 0
0.00346222578251 0.000379811091718 0
0.00330864621581 0.000209630299748 0
0.00313190356822 -8.07460410225e-06 0
0.00292282826808 -0.000261702670959 0
0.00269649230688 -0.000575171181634 0
0.00243812069804 -0.000951009352376 0
0.00215525738358 -0.00139976430411 0
0.00183730393617 -0.00192388942301 0
0.00148332280259 -0.00254625422476 0
0.00109127022102 -0.00327279765552 0
0.000685559184399 -0.004121586561 0
0.000228672119779 -0.00510365952109 0
-0.000242573833981 -0.00622817045696 0
-0.000749966306388 -0.00751987770708 0
-0.00128280550768 -0.00901595440348 0
-0.00189157303968 -0.0107321793737 0
-0.0024761018512 -0.0126974224433 0
-0.00308723714264 -0.0149631779493 0
-0.00367459702704 -0.0175590034207 0
-0.00430108327913 -0.0205519908233 0
-0.00483788866563 -0.0240090702571 0
-0.00540266590919 -0.0280764851275 0
-0.00578535497723 -0.0328791291419 0
-0.00586683716741 -0.0388328655555 0
-0.00492711063988 -0.0469055806676 0
-0.00349696740285 -0.0548321588899 0
-0.00219746799741 -0.0622670093329 0
-0.000923851194556 -0.0691912587568 0
0.000170536969806 -0.075672251657 0
0.00097665942088 -0.0817334072025 0
0.0016864143483 -0.0873180111172 0
0.00219203984696 -0.0924550976509 0
0.00247519572598 -0.097140940683 0
0.00262721087131 -0.101350696725 0
0.00260140664702 -0.105095853758 0
0.00243155390187 -0.108352314172 0
0.0021148286286 -0.111120521421 0
0.00167762956641 -0.113394966938 0
0.00113562175663 -0.1151660435 0
0.000519293820109 -0.116430399463 0
-0.000191024630901 -0.117163122131 0
-0.000965342968207 -0.117428318856 0
-0.00187128537826 -0.117145057539 0
-0.00265622131864 -0.116341021627 0
-0.00332869251551 -0.115026227341 0
-0.00390367427368 -0.113201537534 0
-0.00437639065637 -0.110871269623 0
-0.00471609846314 -0.108047131048 0
-0.00491222027549 -0.104732505968 0
-0.00497001531749 -0.100936540397 0
-0.0048847044745 -0.0966622939067 0
-0.00456640166578 -0.0919320631145 0
-0.00414222657871 -0.0867226560877 0
-0.00346775949271 -0.0810699395919 0
-0.00264750789151 -0.0749546737116 0
-0.00162806847944 -0.068390227553 0
-0.000519492675295 -0.0613442409113 0
0.000778321062457 -0.0538355127879 0
0.00185297804141 -0.0456797054186 0
0.00239813666664 -0.0382339132471 0
0.0022676046355 -0.0327505402857 0
0.00178260266947 -0.0281065931846 0
0.00106401392952 -0.0242741572745 0
0.000380704931142 -0.0210048646815 0
-0.000319878728777 -0.0182115510922 0
-0.00104825259174 -0.0157870071443 0
-0.00175198280377 -0.0137069720579 0
-0.00239005232263 -0.0119010248631 0
-0.00303384649226 -0.0103485047336 0
-0.00360120951028 -0.00900877029403 0
-0.00414578935712 -0.00785229724107 0
-0.00463805760453 -0.00687243768262 0
-0.00504814171902 -0.0060082145179 0
-0.00542119186608 -0.00526325947849 0
-0.00572111726844 -0.00459289340417 0
-0.00597003003637 -0.00400357227793 0
-0.00615039787647 -0.00344491892705 0
-0.00627653328427 -0.002915196707 0
-0.00635220996598 -0.00238681682092 0
-0.00638541158948 -0.00184108106809 0
-0.00639083222553 -0.00127012410095 0
-0.00699994547874 -0.000669758727195 0
-0.00770111309778 -0.000683423781006 0
-0.00850889594713 -0.000741011127547 0
-0.0094107610674 -0.000872324749916 0
-0.010358408518 -0.0011511330252 0
-0.0112225264287 -0.00157708025383 0
-0.0119834903253 -0.00215009928659 0
-0.0123271725406 -0.00288545991312 0
-0.0120952713419 -0.00364160827477 0
-0.0110224720626 -0.00431446303918 0
-0.00864233627374 -0.00448788174109 0
-0.00507762296916 -0.00360440491402 0
-0.0144505567827 -0.00785160325075 0
0.00298146344208 8.8959713083e-05 0
-0.016592643562 -0.0303721990453 0
-0.00597813972828 -0.0536752032232 0
0.00959892185672 -0.0465560454177 0
0.0141918962801 -0.0192357675403 0
0.00832864616059 -0.00264423854517 0
0.00472690203357 0.000318521069432 0
-0.010914918542 -0.00412224017682 0
0.00364448933323 -0.000384040113613 0
0.00396911876805 0.000568247912842 0
0.00554851606528 -0.000165594079491 0
-0.0150080963777 -0.0206377030006 0
-0.0127806954509 -0.0614521927595 0
0.00937896793939 -0.0093522882391 0
0.00177418806537 -0.0750471718191 0
0.0133617862227 -0.0454023015681 0
-0.0113823123908 -0.00919651527877 0
0.00380933304534 0.0002114316378 0
0.00429805947921 0.000765686517472 0
-0.014390928356 -0.0411804144753 0
0.00526154778813 -0.00186762745823 0
-0.00684820740991 -0.0842216625159 0
0.0102150044098 -0.0303322931155 0
0.00730140021842 -0.0774400503582 0
0.00431582706935 0.000612981041751 0
-0.0119372385008 -0.0640464992314 0
0.00475175929539 -0.00558439534629 0
-0.00178630443498 -0.0945521979138 0
0.0060822101486 -0.0158492935612 0
0.0090058813962 -0.0688987307797 0
0.00318529946662 0.000198340396134 0
0.00406084685502 0.000536668035857 0
-0.00862374343753 -0.00266643153946 0
0.00401008379678 -0.000743798749924 0
0.00268304674418 -0.000390100549724 0
-0.0128477089607 -0.00373422042973 0
-0.00937620947966 -0.0165281120339 0
0.00399964589837 -5.89456820931e-05 0
-0.00858225534607 -0.00612836519291 0
0.0062309275759 -0.000654615018019 0
0.0115184031019 -0.00779949034972 0
0.00226626506948 -0.0440304983713 0
0.0134657928873 -0.0283557035292 0
-0.0119999378167 -0.0371803200337 0
0.00429498846598 -0.000277941914369 0
-0.00943761345024 -0.0814865407918 0
0.00262373286029 -0.0936772950536 0
0.00913843576 -0.0503799322987 0
0.00414804238183 0.000747354731618 0
-0.0159634591802 -0.0150390180039 0
-0.0101301775936 -0.0299220328043 0
0.00376034301368 -0.00956635763304 0
-0.00805129375998 -0.0041369951131 0
0.00407636907954 -0.000388989023469 0
0.00409213983663 0.000318509665451 0
-0.00760799028006 -0.0107293449248 0
0.00799270287247 -0.00443145944725 0
-0.00311476235612 -0.073054181417 0
0.0117173309025 -0.0178020964586 0
0.0113037931382 -0.0573510166139 0
-0.0157610292804 -0.0472075548021 0
-0.0101526711866 -0.00345907725199 0
0.00156659185404 -0.000121256749467 0
0.00732957808989 -0.0181893240756 0
0.00582742722473 -0.00166193901546 0
-0.0111091304224 -0.0162655840339 0
-0.00478546179308 -0.0214233546714 0
0.00360981162664 -0.000205080694753 0
0.0101151636275 -0.0102873042984 0
0.00413085103617 0.000790330446196 0
-0.00988094217557 -0.0519797420636 0
0.00351989467393 -0.00270358563533 0
-0.00461463195864 -0.0989656714539 0
0.0044297767967 -0.0257336698166 0
0.00467505296055 -0.0929708279495 0
0.00334770303815 -7.04445334477e-05 0
-0.012965833291 -0.00598484263215 0
0.0048622084013 0.000512826029189 0
0.00426041232374 0.000575736048958 0
0.00395817552821 0.000392495557345 0
0.00593850924555 -0.0840218080263 0
-0.0109076685432 -0.00262497175602 0
0.00358666604101 -0.000810752799715 0
-0.0148112498334 -0.0123068166483 0
-0.0129966940035 -0.0075499075116 0
-0.0103488663405 -0.00839140437344 0
0.00352288089272 -0.00102098360597 0
0.00357823265113 0.000318676482925 0
-0.00676658481138 -0.0949961042232 0
0.00673670787113 -0.0643518260805 0
-0.00896604997442 -0.0795737741302 0
0.000423898453831 -0.101657978138 0
0.00468846235313 -0.0415137377379 0
-0.0168132992569 -0.0308552859247 0
0.00686128483666 -0.00150453230265 0
-0.00889803717578 -0.0652758830715 0
0.00703727720263 -0.0643116753305 0
0.0140675137482 -0.0297352255201 0
0.0021852692086 3.44163053925e-05 0
0.00415025727291 0.000673909684816 0
-0.00646198287473 -0.0227489982411 0
0.00843419044857 -0.00544696223782 0
5.66670072e-05 -0.0197185674241 0
0.00146675477769 -0.0132233073683 0
0.00213762779307 -0.00678630611229 0
0.00417906306743 0.000138399729074 0
-0.00634667594854 -0.0081125354588 0
0.00182384351696 -0.000454197459475 0
-0.010620831668 -0.00281019005344 0
0.00399869489689 0.000704255412436 0
0.00411604033632 0.000800470392042 0
-0.00803669763097 -0.0666490320698 0
-0.00683624041289 -0.0412985166376 0
-0.00245049399328 -0.105892528932 0
0.00417036351132 0.000484408283157 0
0.0056212533704 2.67528542177e-05 0
0.00309379356721 -0.0007543940251 0
-0.0124431722943 -0.00301955345158 0
0.00221371721867 -7.85208507186e-05 0
-0.00541194167509 -0.0145829028813 0
0.00546964415039 -0.0777364524879 0
0.00245028763377 -0.00446683434919 0
0.00205878590443 -0.0184453629404 0
0.00457591812689 0.000244980154792 0
0.00361707759002 -3.71375032427e-05 0
0.00281910359666 -0.101909064702 0
0.00418280907129 -0.000168682913371 0
-0.00696732249643 -0.005405166536 0
0.00712013812136 -0.0333303727082 0
0.00904023777967 -0.00362051329881 0
-0.0075777397851 -0.00191430072255 0
0.00419605925389 -0.000922794576091 0
0.0103529399115 -0.00692058594781 0
0.000178683526395 -0.0610117964995 0
0.0134665329978 -0.0414986610984 0
-0.0144434679216 -0.0459319447003 0
0.00418083177833 0.000709754406322 0
-0.0146620054443 -0.0294372606559 0
0.00363269031811 0.000385733751419 0
0.00544671423661 -0.00081551739819 0
-0.00977080081595 -0.0745626801693 0
0.0123531033662 -0.0389734656593 0
0.00485180429028 -0.0801293355359 0
0.00514354076754 -0.000755490774189 0
0.0107120608709 -0.0180244187431 0
-0.0094522867109 -0.0231589159136 0
0.0119762308 -0.0118414677947 0
-0.00729654936559 -0.00310685948254 0
0.0042211342119 -0.000632754782235 0
0.0036884650912 -8.98946513034e-05 0
-0.011165926766 -0.00586590901977 0
-0.0124546375045 -0.0136118134921 0
0.00377582303495 0.000102118240548 0
0.0126045985581 -0.0114538803398 0
-0.0073895051168 -0.0903043005231 0
0.00445691446726 -0.0547271752975 0
-0.00246941810421 -0.0382916777849 0
0.00387200126212 0.000429004722085 0
-0.0153174826982 -0.0189602466682 0
0.00407701808013 0.000648725813747 0
0.00324957586034 -0.000392029473278 0
-0.0124671136738 -0.00402547939423 0
-0.0120609885775 -0.022420880604 0
0.00415163312792 0.000754080098457 0
-0.016683606908 -0.019908008024 0
-0.00502199400246 -0.030034765402 0
0.00638725271745 -0.000581401851355 0
0.0066096393408 -0.00807180165528 0
-0.0120607656223 -0.0687290633283 0
0.000855855606409 -0.0876446981306 0
0.0111103267517 -0.0555257411483 0
0.00365123172015 -0.0160880354658 0
-0.0129001957378 -0.00469245459012 0
0.00242658899967 -0.000132229807191 0
0.00617851591371 -0.00264404014622 0
0.00386238532131 -0.000543493379307 0
-0.00953745280732 -0.00344434005022 0
0.00301588230338 0.000180844764498 0
0.0110340875684 -0.0310184632175 0
0.00736832140829 -0.00171100038328 0
-0.0141364528981 -0.0285210322459 0
0.00497302876743 -0.000166792932197 0
-0.00773270237738 -0.0375423949719 0
0.0135848363934 -0.0188637225259 0
0.0058159460204 -0.0518162586338 0
0.00844098995345 -0.0741447364473 0
0.00433337388193 0.000735763768853 0
0.00397122826105 0.000136293822892 0
-0.0091066283986 -0.00804756885484 0
0.00510666821522 0.000316092411552 0
0.00388194990556 -0.000257742195443 0
-0.00949638371106 -0.00478252768268 0
-0.0134165479095 -0.0531066479077 0
0.00513727509857 -0.00341559860049 0
-0.00415275691585 -0.0900590311471 0
0.00779193929694 -0.0220847681412 0
0.00250147739707 -0.000729041324884 0
-0.012365494698 -0.00316946846484 0
0.00449275798484 -0.0939029311319 0
-0.00966185079456 -0.0020320176102 0
0.00382768236949 -0.000936278516412 0
0.00285570948261 -0.00185197472066 0
-0.0052832593178 -0.102231996343 0
0.0016711620844 -0.032254312602 0
-0.0134035216206 -0.00864825934452 0
-0.0155479345739 -0.0118255407408 0
0.00924914191715 -0.0136951237362 0
0.00352650079689 0.000155681685529 0
0.0014222803402 -0.00962007712858 0
0.00396743091153 0.000371531181876 0
0.0145223776683 -0.0321177270248 0
-0.0114621136557 -0.050576584429 0
0.00411418998959 -0.00166877972157 0
-0.00644531213177 -0.0922794525107 0
0.00716216482799 -0.0327432365706 0
0.00384479589244 0.000553223333424 0
0.00388356152935 -0.0615105082771 0
0.00146164961151 -2.76711092017e-05 0
0.00419486239717 0.000320448614054 0
-0.00554301762948 -0.0108299947826 0
-0.00753567322632 -0.0752201251351 0
-0.00119468537922 -0.107901056975 0
0.00338746463162 -0.000444605768892 0
0.00163869183725 -0.105348566777 0
0.00419292139592 0.000572097592911 0
0.00421577084656 -0.000388474342188 0
-0.00706368708784 -0.00418949048878 0
-0.00435159762634 -0.0176208906214 0
0.00448370789622 0.000650439166331 0
0.00421750556117 3.40237531826e-06 0
-0.0062365481675 -0.00676558442667 0
-0.0163717646503 -0.0393388269219 0
0.00698195037556 -0.00252898057845 0
-0.00629901461603 -0.0727319168744 0
0.0130335707224 -0.0249693810242 0
0.00898409401503 -0.0652746964307 0
0.00120477103677 -6.17221155642e-05 0
-0.00729212981293 -0.0031878384469 0
0.00419789776609 0.000787853966707 0
0.00643116061385 -0.0842882086374 0
-0.0122004002282 -0.0384752425206 0
0.00637079893702 -0.0117509248573 0
-0.00129385271175 -0.0817884653633 0
0.0113939159807 -0.0588286493237 0
-0.014130783632 -0.0575545144832 0
-0.00604931957362 -0.00172811601383 0
0.000875437872883 -0.000175660643172 0
-0.00783411488201 -0.00469250018314 0
0.0039899157197 0.000412994018382 0
-0.0102618314506 -0.0129112399004 0
0.00740112945532 -0.00150529112093 0
0.00726259964522 -0.00581679845027 0
0.00476688347394 -0.087323735586 0
-0.016768424235 -0.022422643171 0
0.00446615921664 -0.000833473878467 0
-0.00831649214364 -0.085015940761 0
0.00935968947313 -0.0404589459192 0
0.00342400619459 -0.000564028942986 0
-0.0117368780339 -0.00344202126152 0
0.00403616161234 0.000782186174806 0
0.0041300275655 6.59119076977e-05 0
0.00297245178338 -0.00018731017639 0
-0.0132924342423 -0.00490673022635 0
-0.00643185685893 -0.0547686880141 0
0.00265598826535 -0.00259967944357 0
-0.00439794222266 -0.104501206806 0
0.00389829555778 -0.0983939639405 0
0.00121515948397 -0.0265694813458 0
0.0130361905669 -0.0128257375952 0
0.0046395611001 0.000610224657605 0
0.00329273376594 -0.000941706249062 0
-0.0118912790332 -0.00253842219775 0
0.00996001453638 -0.00485904658904 0
0.00224999482868 -0.000376179001532 0
0.0039700807958 0.000518330677253 0
0.00609550687399 -0.00652487773645 0
0.0100535407586 -0.00581087811951 0
-0.00409860978446 -0.0100113759651 0
0.0024182605608 -0.0310318141918 0
-0.0130160201327 -0.00633060223342 0
-0.00202626767042 -0.049930605913 0
-0.0156397826166 -0.0163765048649 0
0.00501634426483 -9.44495496334e-05 0
-0.00767171035703 -0.00777521034665 0
-0.00648973768169 -0.00226201800574 0
0.000987239811751 -0.000460287705294 0
0.00424344551894 -0.000786354581719 0
-0.00727156304211 -0.00248367568076 0
0.00397969472516 0.000536806676004 0
0.00696278006642 -0.00529966389324 0
-0.00182102251797 -0.0137016133433 0
-0.00864916727099 -0.00166790190769 0
0.00400608489106 -0.000997364380826 0
-0.00684785132707 -0.0102387935266 0
0.00236053394246 2.18948661492e-05 0
-0.013890129625 -0.0111010277393 0
0.00619758296014 -0.0108312818513 0
0.00377395769867 -0.000938827210171 0
-0.0161718597107 -0.0388052881393 0
-0.0125783081943 -0.0166471273546 0
0.00884924095999 -0.00371630052505 0
0.0115898898778 -0.0476343679968 0
0.00362251136822 0.000339850080019 0
0.0042298538549 -0.0895570449103 0
0.00478805278633 -0.00752012919727 0
0.00349071934607 -0.000222441694904 0
-0.0119762295748 -0.00492652525772 0
0.00187208723107 -0.000146472582464 0
0.0133482093887 -0.016016198406 0
0.00363824215276 -0.0752639926049 0
-0.00372965491262 -0.0588461838091 0
-0.000650930884917 -0.0733296435908 0
0.0124185462426 -0.0529366007561 0
-0.0146345707882 -0.0542219232151 0
0.00883731083954 -0.00644535922631 0
0.00125704187722 -0.00543275940391 0
-0.000521106755572 -0.0161311241799 0
0.00239840452792 5.82082597239e-05 0
0.00403937698675 -0.000564163116176 0
-0.0083891748418 -0.00335630657858 0
-0.00701539598172 -0.0876493530955 0
-0.0063809245171 -0.0970186750098 0
0.00387911873914 -0.0630250990701 0
0.00218826217211 -0.0475952985786 0
-0.0121978525479 -0.00347942075364 0
0.00226495649508 -0.000331321951653 0
0.00470135183477 0.000508504546121 0
0.00385480396319 -0.000735606487007 0
-0.00954528403309 -0.00273979571877 0
0.0037703798342 0.000430912624031 0
0.00274932824747 -0.00109617195932 0
0.000196176954279 -0.111974465271 0
-0.00894572208594 -0.0544296317884 0
0.0147063787822 -0.0260355955776 0
0.00417602182372 0.00070797558386 0
0.010135154956 -0.0173730184387 0
-0.00346412771243 -0.0253246683151 0
-0.0072228957615 -0.00147334044314 0
0.00426574145382 -0.00102065598788 0
0.00281812836043 -0.0853486732296 0
0.0117016124581 -0.0473450834541 0
-0.0109355072138 -0.0732777019409 0
-0.0119852827823 -0.00748695861895 0
0.00336750872901 0.000282641030715 0
0.0037029418542 6.4712227376e-05 0
0.00403588748403 -0.000245619141915 0
-0.00828736802456 -0.00487165868782 0
0.00410281252387 0.000622478702947 0
0.00413059084484 0.000776433723382 0
-0.00316631267593 -0.0351261541495 0
0.00509980202841 0.000319481056496 0
0.00610042509834 -0.000729889130964 0
-0.0110745934619 -0.0637895689117 0
0.00482977033505 -0.0692206398948 0
0.0139647293697 -0.0374053886573 0
-0.0161251459968 -0.0257136579488 0
0.00981560041681 -0.0662880471963 0
-0.0169922149299 -0.0343308760217 0
0.00666669850706 -0.00347792385848 0
-0.0153888666734 -0.0476189067749 0
-0.00437823324343 -0.0804574512526 0
0.00386931944369 1.75292372597e-05 0
0.00786234752163 -0.00255434943092 0
-0.00998264426357 -0.00669715995088 0
-0.00656598346757 -0.0620871168042 0
0.00925251357975 -0.0560340785548 0
0.0140503248988 -0.0225355256383 0
0.0043297160834 0.000450687635627 0
0.00466001561413 0.000498464444586 0
-0.0110346231874 -0.0710737984385 0
-0.000319496676676 -0.0959533152049 0
0.00919473361724 -0.0629837452827 0
0.000617183828077 -0.00812039734036 0
-2.56258466016e-05 -0.011456531945 0
0.00611335883033 -0.00156413801927 0
-0.00816096482224 -0.0749338978962 0
0.0125982721564 -0.0313859770407 0
0.00702037737054 -0.0731936365213 0
0.00425953232776 0.000237628728136 0
-0.00476350642581 -0.0095440890745 0
-0.00892314984955 -0.0199752328616 0
0.00517650358326 8.91031281345e-05 0
0.00386419836763 -0.00375912806645 0
0.00485436022745 -0.0208992988529 0
0.00430569365207 0.000713840005632 0
0.0042440898774 0.000398381582469 0
-0.00583594094882 -0.100535570266 0
0.00157753053645 -0.0388478321446 0
0.00324177158999 4.93740794288e-05 0
-0.013854161416 -0.00719573756331 0
0.0123493246282 -0.0380289441657 0
-0.0105443656664 -0.00205747432103 0
0.00365302219186 -0.000973336869542 0
-0.0140835783573 -0.0165427890288 0
-0.0147675198264 -0.0368352427913 0
-0.00400624933666 -0.0125103130874 0
-0.0157666495612 -0.0350928792981 0
0.00395842300384 0.000251219239373 0
-0.00964618013478 -0.00964269353259 0