# vtk DataFile Version 2.0
Generated with Solid Solver
ASCII
DATASET UNSTRUCTURED_GRID
POINTS 1163 float 
0.0 3.5 0.0
2.2 3.5 0.0
2.2 4.0 0.0
0.0 4.0 0.0
0.0687499999999 3.5 0.0
0.1375 3.5 0.0
0.20625 3.5 0.0
0.275 3.5 0.0
0.343749999999 3.5 0.0
0.412499999999 3.5 0.0
0.481249999999 3.5 0.0
0.549999999999 3.5 0.0
0.618749999998 3.5 0.0
0.687499999998 3.5 0.0
0.756249999998 3.5 0.0
0.824999999998 3.5 0.0
0.893749999998 3.5 0.0
0.962499999997 3.5 0.0
1.03125 3.5 0.0
1.1 3.5 0.0
1.16875 3.5 0.0
1.2375 3.5 0.0
1.30625 3.5 0.0
1.375 3.5 0.0
1.44375 3.5 0.0
1.5125 3.5 0.0
1.58125 3.5 0.0
1.65 3.5 0.0
1.71875 3.5 0.0
1.7875 3.5 0.0
1.85625 3.5 0.0
1.925 3.5 0.0
1.99375 3.5 0.0
2.0625 3.5 0.0
2.13125 3.5 0.0
2.2 3.56430812579 0.0
2.2 3.6227083524 0.0
2.2 3.67574343203 0.0
2.2 3.72390623714 0.0
2.2 3.76764438299 0.0
2.2 3.80736436348 0.0
2.2 3.84343531161 0.0
2.2 3.87619247056 0.0
2.2 3.90594026646 0.0
2.2 3.93295517223 0.0
2.2 3.9574882542 0.0
2.2 3.97976750927 0.0
2.18000003888 4.0 0.0
2.15999995974 4.0 0.0
2.13999995594 4.0 0.0
2.12000003893 4.0 0.0
2.0999999813 4.0 0.0
2.07999993507 4.0 0.0
2.06000001965 4.0 0.0
2.04000002354 4.0 0.0
2.01999993997 4.0 0.0
1.99999999426 4.0 0.0
1.98000004623 4.0 0.0
1.95999996625 4.0 0.0
1.93999996787 4.0 0.0
1.92000005069 4.0 0.0
1.90000001292 4.0 0.0
1.87999994967 4.0 0.0
1.86000003245 4.0 0.0
1.84000003166 4.0 0.0
1.81999995194 4.0 0.0
1.80000002065 4.0 0.0
1.78000005962 4.0 0.0
1.75999997703 4.0 0.0
1.73999998149 4.0 0.0
1.72000006236 4.0 0.0
1.70000000651 4.0 0.0
1.67999995967 4.0 0.0
1.66000004242 4.0 0.0
1.64000004304 4.0 0.0
1.61999996152 4.0 0.0
1.6000000096 4.0 0.0
1.58000006667 4.0 0.0
1.55999998704 4.0 0.0
1.53999998381 4.0 0.0
1.52000006764 4.0 0.0
1.5000000299 4.0 0.0
1.47999996242 4.0 0.0
1.46000004337 4.0 0.0
1.4400000454 4.0 0.0
1.41999996386 4.0 0.0
1.40000002834 4.0 0.0
1.38000006734 4.0 0.0
1.35999998576 4.0 0.0
1.33999998537 4.0 0.0
1.32000006658 4.0 0.0
1.30000001585 4.0 0.0
1.27999996279 4.0 0.0
1.26000004759 4.0 0.0
1.24000004493 4.0 0.0
1.2199999616 4.0 0.0
1.20000000906 4.0 0.0
1.18000006792 4.0 0.0
1.15999998616 4.0 0.0
1.13999999119 4.0 0.0
1.12000007157 4.0 0.0
1.1 4.0 0.0
1.07999992843 4.0 0.0
1.06000000881 4.0 0.0
1.04000001384 4.0 0.0
1.01999993209 4.0 0.0
0.999999990948 4.0 0.0
0.98000003841 4.0 0.0
0.959999955072 4.0 0.0
0.939999952416 4.0 0.0
0.920000037214 4.0 0.0
0.899999984154 4.0 0.0
0.879999933427 4.0 0.0
0.860000014636 4.0 0.0
0.840000014246 4.0 0.0
0.819999932662 4.0 0.0
0.79999997166 4.0 0.0
0.780000036145 4.0 0.0
0.759999954604 4.0 0.0
0.73999995663 4.0 0.0
0.72000003758 4.0 0.0
0.699999970103 4.0 0.0
0.679999932361 4.0 0.0
0.660000016189 4.0 0.0
0.640000012962 4.0 0.0
0.61999993333 4.0 0.0
0.599999990406 4.0 0.0
0.58000003848 4.0 0.0
0.559999956964 4.0 0.0
0.539999957581 4.0 0.0
0.520000040329 4.0 0.0
0.499999993489 4.0 0.0
0.479999937647 4.0 0.0
0.460000018512 4.0 0.0
0.440000022972 4.0 0.0
0.419999940378 4.0 0.0
0.399999979352 4.0 0.0
0.380000048063 4.0 0.0
0.359999968347 4.0 0.0
0.339999967553 4.0 0.0
0.320000050328 4.0 0.0
0.299999987077 4.0 0.0
0.279999949312 4.0 0.0
0.260000032129 4.0 0.0
0.240000033752 4.0 0.0
0.219999953776 4.0 0.0
0.200000005737 4.0 0.0
0.180000060031 4.0 0.0
0.159999976465 4.0 0.0
0.139999980354 4.0 0.0
0.120000064926 4.0 0.0
0.100000018697 4.0 0.0
0.0799999610675 4.0 0.0
0.0600000440571 4.0 0.0
0.0400000402596 4.0 0.0
0.0199999611169 4.0 0.0
0.0 3.97976750927 0.0
0.0 3.9574882542 0.0
0.0 3.93295517223 0.0
0.0 3.90594026646 0.0
0.0 3.87619247056 0.0
0.0 3.84343531161 0.0
0.0 3.80736436348 0.0
0.0 3.76764438299 0.0
0.0 3.72390623714 0.0
0.0 3.67574343203 0.0
0.0 3.6227083524 0.0
0.0 3.56430812579 0.0
0.249757963562 3.75212589829 0.0
1.94999996706 3.74954522137 0.0
0.488710285893 3.75947702441 0.0
0.726520490699 3.7655965719 0.0
0.967283134849 3.7597072979 0.0
1.20619032017 3.75831098673 0.0
1.45842774915 3.76733088374 0.0
1.69012076678 3.7622332834 0.0
0.130754044069 3.86878249167 0.0
2.06924595593 3.86878249167 0.0
1.8299999918 3.84622455633 0.0
1.56816462369 3.85034872999 0.0
0.369913859351 3.84868157925 0.0
0.608733620231 3.84706187144 0.0
1.33069778866 3.84790908234 0.0
0.84323446252 3.84762979148 0.0
1.08873170817 3.84705870913 0.0
0.250539365135 3.87785524304 0.0
1.94967747948 3.87849609822 0.0
1.73218750075 3.8916046151 0.0
0.468661874066 3.89189322974 0.0
1.47574192429 3.89639134117 0.0
0.704258110321 3.8963912684 0.0
1.18331258449 3.8976320365 0.0
0.949999953744 3.89208018478 0.0
1.64795374468 3.91749779939 0.0
0.548928463645 3.91905583847 0.0
1.38619509199 3.91928594438 0.0
0.788926872841 3.91906062101 0.0
1.27071160784 3.91777932845 0.0
1.02999997296 3.91685174433 0.0
1.81733541416 3.69950870754 0.0
1.86999999106 3.91823503401 0.0
0.071252620538 3.93011431841 0.0
2.12874737946 3.93011431841 0.0
2.07400690796 3.74293885365 0.0
0.125993092043 3.74293885365 0.0
0.32995676804 3.92118147353 0.0
2.00999996712 3.92542383197 0.0
0.190000032884 3.92542383197 0.0
1.56698738743 3.72218882919 0.0
1.33000000474 3.72531695685 0.0
0.848014510843 3.71986098938 0.0
1.09024665585 3.72285801424 0.0
0.610276609989 3.72290563624 0.0
1.54999998543 3.92414142844 0.0
0.629999973146 3.92414137652 0.0
0.869999974031 3.92414141814 0.0
1.11000003579 3.92414141267 0.0
1.79030638642 3.92649353654 0.0
0.370434802927 3.72513294336 0.0
0.410903135411 3.92892991244 0.0
1.33000002597 3.93737911571 0.0
0.129927648482 3.94112154503 0.0
2.07007235152 3.94112154503 0.0
1.93000000928 3.93875927586 0.0
0.26999999072 3.93875927586 0.0
1.40966706061 3.83880068991 0.0
0.770332962441 3.83880062149 0.0
1.24904900022 3.84293377683 0.0
1.01033287484 3.83880060723 0.0
0.530342681434 3.83880307444 0.0
0.189895273961 3.63486992823 0.0
2.00989835291 3.62845703161 0.0
0.998888153878 3.61665036233 0.0
1.47894673873 3.61675180774 0.0
0.51733910646 3.62937665489 0.0
0.705112628302 3.618743723 0.0
1.66672137035 3.63168728155 0.0
1.18508242495 3.61871739348 0.0
1.71000003443 3.94408608591 0.0
0.489999965568 3.94463856597 0.0
1.44983363802 3.94422347836 0.0
0.729999997105 3.94465012565 0.0
1.21016639734 3.94422345842 0.0
0.928621800545 3.94440037102 0.0
2.00626203014 3.81543543551 0.0
0.193627962274 3.81528928332 0.0
1.66628164144 3.83559795895 0.0
1.75661718781 3.81065958113 0.0
1.61143779865 3.94859227761 0.0
0.991673865748 3.95161238438 0.0
0.0604617941233 3.86281264864 0.0
2.13953820588 3.86281264865 0.0
0.300965570716 3.8114148258 0.0
0.2970894797 3.66361086085 0.0
0.398842167194 3.60449226805 0.0
1.51000004877 3.95218393067 0.0
1.90135619383 3.81213273629 0.0
0.669405272842 3.95495208979 0.0
1.07142780558 3.94866325309 0.0
0.592085094025 3.94901139323 0.0
0.831051660929 3.94633985879 0.0
1.14940528892 3.9549521224 0.0
0.44409344258 3.82719938178 0.0
1.49646539728 3.82376850413 0.0
0.683434082651 3.82631713605 0.0
0.92337834777 3.8234861632 0.0
1.16343437877 3.82631615351 0.0
1.90749084149 3.65350700271 0.0
1.8278758005 3.95083911942 0.0
0.37243073327 3.95235211027 0.0
1.29345662549 3.60569899261 0.0
0.813407949226 3.60572380122 0.0
1.29317153636 3.96216077293 0.0
1.367704599 3.96055764734 0.0
1.97071235041 3.96038324024 0.0
0.22928764959 3.96038324024 0.0
2.10610581798 3.66047411138 0.0
0.0938941820177 3.66047411138 0.0
1.67000000105 3.95862953468 0.0
1.74869816704 3.96079301687 0.0
0.531976761939 3.96138655466 0.0
0.451361042387 3.96112774725 0.0
0.771976832233 3.96138887156 0.0
1.88843481911 3.95881554986 0.0
1.61277513709 3.78538823015 0.0
2.13311214501 3.79435403671 0.0
0.0668878549946 3.79435403671 0.0
1.76678797151 3.60286552601 0.0
0.311702446283 3.9611157379 0.0
1.02877762737 3.96159282031 0.0
1.40830122607 3.96143175203 0.0
1.25214210333 3.957355862 0.0
1.59476493393 3.9048774062 0.0
1.56950979124 3.96148017208 0.0
0.890017020275 3.96125792969 0.0
2.03089110475 3.96040268709 0.0
0.169108895255 3.96040268709 0.0
0.939722125942 3.68539157065 0.0
1.41686981874 3.69192854313 0.0
0.0426348006718 3.96101756902 0.0
2.15736519933 3.96101756902 0.0
1.36077308019 3.79177204211 0.0
0.817982383499 3.78962669257 0.0
1.05834720932 3.78780184893 0.0
0.578349529346 3.78781530011 0.0
1.77992711518 3.87652731382 0.0
0.417982153133 3.87594990465 0.0
1.84363633012 3.77741329286 0.0
1.52244994479 3.87704541475 0.0
0.657426528912 3.87734838249 0.0
1.13742651778 3.87734834025 0.0
0.898116026439 3.8800466833 0.0
1.56984259435 3.64465823131 0.0
1.08983016076 3.6446495206 0.0
0.609942357805 3.64483976081 0.0
1.29451769374 3.79627773068 0.0
0.0893439668432 3.96574839433 0.0
2.11065603316 3.96574839433 0.0
2.01422398896 3.86980625824 0.0
0.185776011038 3.86980625824 0.0
0.305957237756 3.87340573745 0.0
1.72977480551 3.68665973332 0.0
1.25418096296 3.69351129461 0.0
0.629999973146 3.96272981435 0.0
1.11000003579 3.96272983221 0.0
0.772975283819 3.69297597031 0.0
1.89089074715 3.86951346173 0.0
0.445448577516 3.69456159386 0.0
1.82621986864 3.89678318705 0.0
2.07135424223 3.81165410377 0.0
0.128645757768 3.81165410377 0.0
0.373320289473 3.89968791662 0.0
1.79000004014 3.96541718891 0.0
0.383302070088 3.78976392323 0.0
0.409457623385 3.96502881851 0.0
1.55531527123 3.78787141386 0.0
1.34861332978 3.89383287415 0.0
0.593245985735 3.89483466551 0.0
0.833245353375 3.89479604398 0.0
1.0732444554 3.8948349405 0.0
0.911896623122 3.59194725763 0.0
0.187580554011 3.70699710313 0.0
2.01241944599 3.70699710313 0.0
1.39201907571 3.59233063354 0.0
2.09635520798 3.90516200201 0.0
0.103644792024 3.90516200201 0.0
1.89086147526 3.72621461413 0.0
1.02102684616 3.70044819701 0.0
1.49813234221 3.70194667869 0.0
0.53965669049 3.70593418829 0.0
1.63719578665 3.69772473547 0.0
0.685447658936 3.70127585046 0.0
1.16541741817 3.70128744764 0.0
0.901649266036 3.76287226775 0.0
0.992351690321 3.90662993531 0.0
1.69131894868 3.90657323657 0.0
1.9699561555 3.91599371502 0.0
0.230043844497 3.91599371502 0.0
1.61980840676 3.85005402918 0.0
2.04685187594 3.90639759008 0.0
0.153148124058 3.90639759008 0.0
0.512139828486 3.90538520837 0.0
1.43057458921 3.90702644399 0.0
0.749149996349 3.90689574876 0.0
[...]
POINT_DATA 1163
VECTORS Displacement float
0.0 0.0 0
0.0 0.0 0
0.0101681424932 -0.00165219046802 0
-0.0108241255496 -0.00166255613147 0
0.0 0.0 0
0.0 0.0 0
0.0 0.0 0
0.0 0.0 0
0.0 0.0 0
0.0 0.0 0
0.0 0.0 0
0.0 0.0 0
0.0 0.0 0
0.0 0.0 0
0.0 0.0 0
0.0 0.0 0
0.0 0.0 0
0.0 0.0 0
0.0 0.0 0
0.0 0.0 0
0.0 0.0 0
0.0 0.0 0
0.0 0.0 0
0.0 0.0 0
0.0 0.0 0
0.0 0.0 0
0.0 0.0 0
0.0 0.0 0
0.0 0.0 0
0.0 0.0 0
0.0 0.0 0
0.0 0.0 0
0.0 0.0 0
0.0 0.0 0
0.0 0.0 0
0.0027763797495 -0.00210931238218 0
0.00496440983736 -0.00276214320557 0
0.0066891583077 -0.00284789281948 0
0.00784490769378 -0.00266601023781 0
0.00860924220349 -0.00241011177151 0
0.00909883642985 -0.00215203939609 0
0.00938528814055 -0.00195240367715 0
0.00958837439072 -0.00180671611686 0
0.00972326931125 -0.00171420569042 0
0.00983614374486 -0.00167251045542 0
0.00994593488459 -0.00165499332808 0
0.0100578446499 -0.00165147957585 0
0.0101688644303 -0.00154170328295 0
0.0101678947338 -0.00142210297627 0
0.0101583084909 -0.00129308598005 0
0.0101354620435 -0.00115643061298 0
0.0100961441489 -0.00101704574568 0
0.0100383137199 -0.000883736863583 0
0.00995787654404 -0.000754926516288 0
0.00985811035241 -0.000647641095574 0
0.00973289454727 -0.000555820187068 0
0.00959071825815 -0.000495841425161 0
0.00941676469604 -0.000463770901298 0
0.00922063357023 -0.000475528572541 0
0.00900609955609 -0.000535762361344 0
0.00875860673952 -0.000642236359478 0
0.00849484066826 -0.000812759317264 0
0.00819115294297 -0.0010435650668 0
0.00786567047931 -0.00135607060799 0
0.00750676377227 -0.00174347519303 0
0.00712239167081 -0.00223525522098 0
0.0066852913024 -0.00283178137097 0
0.0062275096509 -0.0035525219202 0
0.00575877414235 -0.00441109509347 0
0.00522930184876 -0.005402014177 0
0.00467863912406 -0.0065774503621 0
0.00406367934675 -0.00794397570747 0
0.0034602529935 -0.00952842373758 0
0.00278737136801 -0.0113505392522 0
0.00208617007645 -0.0134675044545 0
0.00136327185772 -0.0158874654169 0
0.000700452131983 -0.0186532339676 0
2.64121240065e-05 -0.0218684985037 0
-0.000761868184366 -0.0255439431211 0
-0.00144705951628 -0.0297477584486 0
-0.00219604719151 -0.0346137640595 0
-0.00303129064984 -0.0397842102533 0
-0.00149920760255 -0.0503545171796 0
0.000499450394009 -0.0599113454656 0
0.00253924854551 -0.0688938899264 0
0.00421525502127 -0.0775931454947 0
0.00577951536868 -0.0856901718906 0
0.00705413406976 -0.0933956115613 0
0.00811165393036 -0.100640842822 0
0.00886711538034 -0.107457458446 0
0.00945507420258 -0.113782414135 0
0.00972603219147 -0.11974067265 0
0.00973337672675 -0.125219479946 0
0.00950460732663 -0.130224833556 0
0.00909592939176 -0.134730068859 0
0.00845434919827 -0.138750032292 0
0.00763058885663 -0.142260853146 0
0.00665198687372 -0.14524726817 0
0.00552167640792 -0.147710167176 0
0.0042347354387 -0.149636847283 0
0.0028185697733 -0.151015450583 0
0.00129911514554 -0.151823476268 0
-0.000412493990576 -0.152050252607 0
-0.00197784794128 -0.151821654451 0
-0.00343015097688 -0.150982898251 0
-0.00481516159501 -0.149589773202 0
-0.00609964685052 -0.147645790493 0
-0.00723372784444 -0.145167445546 0
-0.00821501945902 -0.142160890194 0
-0.0090291412138 -0.138633689869 0
-0.00965112318022 -0.134601468722 0
-0.0100938516346 -0.130067601476 0
-0.0102816949709 -0.125053108368 0
-0.0103140358259 -0.119539620141 0
-0.0100331203989 -0.113603101576 0
-0.00950996773996 -0.107235811615 0
-0.00873401062737 -0.100393397462 0
-0.00771028388119 -0.0931207304856 0
-0.00640599410633 -0.0854015977885 0
-0.00495944013722 -0.0772438270239 0
-0.00320848564826 -0.0685254892913 0
-0.00140123075245 -0.0594122536247 0
0.000322221617836 -0.0496038684352 0
0.000844307275862 -0.0418834872186 0
0.00064191983918 -0.035688248739 0
0.000285274344934 -0.0305932326482 0
-0.000328684242025 -0.0261992558403 0
-0.000971226204181 -0.0224320837005 0
-0.00163107030078 -0.0191939459537 0
-0.00228480941824 -0.0163906662966 0
-0.00297370892234 -0.0139178058935 0
-0.00361893050362 -0.011771179605 0
-0.00429948435451 -0.00991631649916 0
-0.0049116916577 -0.00832053429846 0
-0.00551041675456 -0.00695614060632 0
-0.00604696854444 -0.00576871004177 0
-0.00658073271609 -0.00475828972627 0
-0.0070956133929 -0.00390988883481 0
-0.00755116799647 -0.0031926315357 0
-0.00798083211545 -0.00260993711328 0
-0.00837558614078 -0.00212630241224 0
-0.00874453047084 -0.00174649975907 0
-0.00906814474789 -0.00144620343504 0
-0.0093739460437 -0.00122922928885 0
-0.00963959040155 -0.00107372841247 0
-0.00988337418547 -0.000980761419176 0
-0.0100999338304 -0.000944253400434 0
-0.0102774391122 -0.000943759472862 0
-0.0104343324449 -0.000984017699773 0
-0.0105594966087 -0.00104472660492 0
-0.0106606488987 -0.00113299133771 0
-0.0107333841251 -0.00122742085574 0
-0.0107828938286 -0.00132973398264 0
-0.0108116855552 -0.00142881057107 0
-0.0108237772092 -0.00151839011677 0
-0.0108250269719 -0.00159619184581 0
-0.0107588491048 -0.00166166872226 0
-0.0106989455634 -0.00166610758888 0
-0.0106497884774 -0.00168812701242 0
-0.0106056462997 -0.00174044985105 0
-0.0105437814512 -0.00185642172599 0
-0.010407695007 -0.00203908975789 0
-0.0101799865346 -0.0022899633536 0
-0.00971427209409 -0.00261537924171 0
-0.00892419496513 -0.00294322721097 0
-0.00766910437234 -0.00319324315369 0
-0.00572829126011 -0.003134524836 0
-0.00321959815643 -0.00241493040087 0
-0.0111011825225 -0.00120325733075 0
0.00973241128503 -0.000656511498696 0
-0.0171134604243 -0.00932432045507 0
-0.0216489410029 -0.0388612580547 0
-0.00953278712898 -0.0666270286731 0
0.0101987229835 -0.0654317782105 0
0.0215469408106 -0.0351311671681 0
0.0159922858531 -0.00783615973443 0
-0.0106775270097 -0.00103423331777 0
0.00967765278776 -0.000778229530946 0
0.0114001246699 -0.00186533852176 0
0.0180734366194 -0.0226590579626 0
-0.0127499014036 -0.00332383019096 0
-0.0194391413231 -0.0257518364595 0
0.0181727105194 -0.0734602133135 0
-0.0180400668689 -0.0758708288041 0
0.000516940578818 -0.0982117384318 0
-0.0110083939534 -0.000974570783199 0
0.00997807352283 -0.000367908791941 0
0.0113169394721 -0.0055506647176 0
-0.0127199650422 -0.00866118162003 0
0.0181392565375 -0.0456462836446 0
-0.0190588120923 -0.0513919270898 0
0.008186850945 -0.110131268041 0
-0.0107545669591 -0.10528865659 0
0.0107530786176 -0.0122962545935 0
-0.0121167902702 -0.0172897766811 0
0.0165803623054 -0.0757940404469 0
-0.0170446182928 -0.0798762808818 0
0.0132702496138 -0.103637597952 0
-0.00441578658168 -0.120568653678 0
0.0114530772613 -0.00238680979857 0
0.00963566913223 -0.000977885591063 0
-0.0106502578738 -0.00136807396625 0
0.0098282983899 -0.00121228991209 0
0.00850485196802 -0.000935621099735 0
-0.00966246415464 -0.00118588910496 0
-0.0103892266504 -0.00209801746241 0
0.00969906436163 -0.000416936943936 0
-0.0105059764738 -0.000806497721157 0
0.0191574612516 -0.0168260443605 0
0.0172284571945 -0.0453283206242 0
-0.0164408605751 -0.0460518209475 0
0.000695517273209 -0.0591095004978 0
-0.0199037039862 -0.0187891269132 0
0.0124280741294 -0.0274103410719 0
-0.0139676306744 -0.0325674397696 0
-0.014442462799 -0.101353653596 0
0.00217645060495 -0.124002614123 0
0.00938813908266 -0.00289321300755 0
-0.0132494953058 -0.00335615854501 0
-0.0101077846742 -0.00498242162641 0
0.0143457848335 -0.0954457990559 0
-0.010569445331 -0.00102372841913 0
0.00979515157682 -0.000767953198399 0
0.00943408917219 -0.000424615586589 0
-0.0101384644321 -0.00113510508211 0
0.0208823244359 -0.0549529503552 0
-0.0209557011887 -0.0592001292231 0
0.0135677233464 -0.0854544283239 0
-0.00630725090105 -0.0934539634988 0
-0.0170912403069 -0.0144064179356 0
-0.00697766434347 -0.000894828905826 0
0.00583143193136 -0.000624979848664 0
-0.00449989668782 -0.0282649725621 0
0.0139246880588 -0.0141877378731 0
-0.0131484696526 -0.0069125499601 0
-0.0143424183472 -0.0158239757568 0
0.012422901736 -0.00591688432444 0
0.00562251204024 -0.0282738995764 0
0.00832729504794 -0.00692264345143 0
-0.00906578564022 -0.010502117683 0
0.0133548987991 -0.058745267534 0
-0.0144308455437 -0.0656553705279 0
0.00921695286146 -0.122079042217 0
-0.0109894654349 -0.118700763368 0
0.00971680501486 -0.000495966284254 0
-0.0108913107406 -0.000882900476422 0
0.0154335352021 -0.0103044770209 0
0.0135283151851 -0.00442841546214 0
0.00795800602615 -0.0167662114005 0
-0.00701290066106 -0.129681617387 0
-0.0105730551079 -0.00153679802312 0
0.00957338908418 -0.00137831940486 0
-0.0121446987509 -0.00170789993558 0
-0.00981967864853 -0.00166940462875 0
-0.00899388149817 -0.00278119224205 0
0.00979134757281 -0.0379586775671 0
0.0107459373967 -0.000815191953558 0
-0.0109442504787 -0.0448194768188 0
-0.000987544920152 -0.133126237372 0
-0.00937402168743 -0.0244708075978 0
-0.0143431625757 -0.097762753808 0
0.00507597999886 -0.132617330606 0
-0.0149298042363 -0.00686817744619 0
0.0211720292398 -0.0344346477011 0
-0.0218539864458 -0.0387798404838 0
-0.0132622509059 -0.0813760764524 0
0.00701603262487 -0.0888162150738 0
0.00812985954907 -0.00104342326475 0
0.00867200412202 -0.00181508972967 0
-0.0091570038555 -0.00337751733378 0
0.00971796742986 -0.021671864953 0
-0.0115468807195 -0.0192950932675 0
0.0120274922457 -0.111267911197 0
0.0125727178505 -0.0898577135942 0
0.00944834965405 -0.000365722196516 0
-0.0100726979756 -0.000895862000764 0
0.00631649320758 -0.00111480124893 0
-0.00727024817559 -0.00131593893004 0
0.0069507985115 -0.0101124631453 0
0.00755875165493 -0.00469947781765 0
-0.00727748628239 -0.0150716935936 0
-0.00794507141036 -0.0074339121251 0
-0.0129542190741 -0.083135950336 0
0.00892940590346 -0.000780096141816 0
0.0185178030544 -0.0148447468028 0
0.00906975624438 -0.00144284162724 0
-0.0101911829627 -0.00164028120389 0
0.00848202449896 -0.00256942555012 0
-0.00940002366274 -0.00177667357442 0
-0.00429078255088 -0.136233689067 0
0.01185833462 -0.0763409465824 0
0.0110020833781 -0.119018881754 0
0.0131406852974 -0.0191132532811 0
0.00643498217216 -0.0234911786957 0
-0.0120617577921 -0.116291321799 0
0.00971943551883 -0.000538415564836 0
-0.0104060666027 -0.000881135483369 0
-0.010087918449 -0.0444078256429 0
0.0185899293187 -0.0295646287639 0
-0.01070249308 -0.00150768436514 0
0.00995889394278 -0.0014059791378 0
0.0198339687266 -0.0554808543615 0
-0.0194676353994 -0.0579797196389 0
-0.00210964988779 -0.0789020327581 0
-0.0199432373373 -0.0187920254406 0
0.0113309740923 -0.0033308247502 0
-0.0126715034701 -0.00536628024625 0
0.0117911045293 -0.00177596602145 0
0.0180869762408 -0.032534228127 0
-0.0192927041993 -0.0374043235529 0
0.00465061680406 -0.106826194969 0
-0.0144115167826 -0.0942412198786 0
0.0153359005146 -0.0114058631673 0
0.000468702307907 -0.0366307916822 0
-0.0158501075016 -0.0127659286343 0
0.016600514108 -0.0666815861489 0
-0.0106578306921 -0.00125994426481 0
0.00993681321596 -0.00107383484669 0
0.0097960353934 -0.000449303358092 0
-0.0108100609203 -0.000823096825371 0
-0.0114335405931 -0.00163770503776 0
0.013476826283 -0.00487468320449 0
0.0120875484827 -0.0445494534514 0
-0.0079008852365 -0.0330071006625 0
0.00204167296437 -0.137683518345 0
-0.0182764417939 -0.0328262424674 0
0.0103892176342 -0.000755194524765 0
-0.0146616734832 -0.00576770970068 0
0.0102674354074 -0.00184076533135 0
0.00938178699841 -0.000846570912453 0
-0.0105105016725 -0.00110255455976 0
-0.0112272100503 -0.00337772360848 0
0.00781465748715 -0.00298312515765 0
-0.0139290527925 -0.00389075764455 0
-0.00818758320822 -0.00498603441678 0
0.0202540187868 -0.0220564092673 0
0.0173778222405 -0.0804119466479 0
-0.0157132486586 -0.0242696789728 0
-0.0171657628286 -0.0855677008589 0
-0.000848628779135 -0.114278070714 0
-0.0072620129545 -0.0200944914991 0
-0.00938002082694 -0.000992279797752 0
0.00820801927505 -0.000667105560908 0
0.0110136485043 -0.0149765772035 0
0.00974988296625 -0.000964479785826 0
-0.010641109885 -0.00117389159213 0
0.0103657318216 -0.00117201346776 0
-0.00467346632144 -0.0517620359942 0
0.0194918291663 -0.0223552999663 0
-0.0176290208948 -0.0115853021334 0
0.016568562395 -0.00989326683851 0
-0.0198128174949 -0.0248329602085 0
0.00634690955726 -0.0512151779575 0
-0.0143924521939 -0.0621217459766 0
-0.0074545135968 -0.114465596322 0
0.0109894493591 -0.00829349345402 0
0.0097010476682 -0.000330115342055 0
-0.0105408973192 -0.00085415553384 0
0.016263739624 -0.0153314926898 0
0.00974417018488 -0.000608163884062 0
-0.0106288137748 -0.000906905475175 0
-0.0125986435216 -0.0127232419427 0
0.0178073434038 -0.0603643986344 0
-0.0183901804077 -0.0660462310394 0
0.0110483048642 -0.108726766943 0
0.00798407596988 -0.00157271453643 0
-0.00909087374606 -0.00179628562271 0
-0.00893475213595 -0.130512625902 0
-0.0106251903635 -0.00158749808868 0
0.00972310024991 -0.00147453970222 0
0.00854828795434 -0.0499235245249 0
-0.0101796743766 -0.0577378041585 0
0.0071544485147 -0.133350243774 0
-0.0113645637808 -0.00103227906207 0
-0.0122763015918 -0.00205167052694 0
0.01537135273 -0.0876642060689 0
0.0101464729772 -0.000450833436283 0
0.0122534304696 -0.102362488372 0
0.0135955926533 -0.00401786891367 0
0.00310739219012 -0.0757737236089 0
-0.021450028426 -0.0264116255897 0
0.0143638986591 -0.0462063335273 0
-0.0156290412056 -0.0528953181637 0
0.00733829908759 -0.121510735804 0
0.00582585108214 -0.0134541994578 0
-0.0166737366483 -0.0678681109771 0
0.00584978085589 -0.00118386983175 0
0.00916175898839 -0.000471315037513 0
-0.00970992221075 -0.0011913752055 0
-0.00650339280883 -0.0189538816749 0
-0.0126043975902 -0.092834674144 0
0.00612030825591 -0.0293338660193 0
-0.0125549377566 -0.110628371646 0
0.00852306244522 -0.00116721945774 0
0.0098515220768 -0.000780657546494 0
-0.0105515574626 -0.00104091470092 0
-0.00892223403129 -0.00237412706691 0
0.0137089333051 -0.00636416460956 0
0.00957134264405 -0.000421106861717 0
-0.0101957442988 -0.000858506519321 0
-0.0153762108785 -0.00970048320054 0
0.0210679311374 -0.0449798361849 0
-0.0215641389989 -0.0495467186109 0
0.0098570520911 -0.0906894070899 0
-0.0102286141267 -0.0920655674275 0
0.00476832615191 -0.000729247732208 0
-0.00507739588118 -0.000926890469015 0
0.00988458290881 -0.00454204647424 0
-0.00920266379747 -0.119161861931 0
-0.0108875580192 -0.00722767802146 0
0.0152459004388 -0.0933575207276 0
-0.019316333232 -0.0718785518149 0
-0.00391134267681 -0.105389948239 0
-0.0163189751662 -0.0182342405114 0
-0.00389132748706 -0.000683151110036 0
0.0033540917068 -0.000554529705076 0
-0.00606858021217 -0.0014762391739 0
0.00981045263321 -0.000588245900672 0
-0.0107467625177 -0.00146125210994 0
0.0212498896368 -0.0278433768469 0
0.019342023114 -0.0671655132464 0
-0.0130136181151 -0.105362299287 0
-0.0152257261842 -0.0057589942358 0
0.0145169208367 -0.0350099926654 0
-0.0161777169285 -0.0416735116199 0
0.00502901105844 -0.119815514505 0
0.0094902771211 -0.00106508349428 0
-0.010557315636 -0.00128055489693 0
0.00658467171461 -0.00703875188496 0
0.0104393805357 -0.0223100499408 0
0.00918216662442 -0.000647557307353 0
-0.0103881152591 -0.000969450978928 0
-0.00686842885966 -0.0106159829837 0
0.00964560807754 -0.0597195794568 0
-0.0111824884966 -0.0672947879194 0
-0.0101605754461 -0.127086928025 0
0.00858519964536 -0.129877353142 0
0.0141827470561 -0.0567190152149 0
0.0136194422206 -0.0106402121233 0
0.00927567763837 -0.0016706842977 0
-0.0103521195319 -0.00183159333909 0
0.0195910519488 -0.0390441038806 0
0.00742893063888 -0.00398428337105 0
0.0125760079346 -0.00272671578991 0
0.00177923388099 -0.0145372821216 0
0.014759129484 -0.0308981552253 0
-0.00863738842906 -0.00680616829749 0
-0.0136417720227 -0.033414035302 0
-0.00956116672369 -0.00124497576807 0
-0.0198387250713 -0.0434193546113 0
-0.0128578549371 -0.00256789174295 0
0.0159125145718 -0.0236536742501 0
-0.00779951418549 -0.00316926772946 0
-0.00416240079307 -0.00140266647019 0
0.00358954978746 -0.00122348012943 0
0.00998205963067 -0.00125530024842 0
-0.0107023942966 -0.0013977519747 0
0.0104087066757 -0.00116917986858 0
0.0056884408859 -0.0166841906757 0
-0.00967023454025 -0.0117180450478 0
-0.010654451291 -0.00158862212123 0
0.00983006537056 -0.00150393453434 0
-0.00924827319973 -0.00525731183715 0
0.00843084579347 -0.000812979157879 0
-0.0114278193564 -0.0028498103768 0
-0.00161967385455 -0.0186109098451 0
0.0100567541302 -0.00805453140029 0
-0.0183160568987 -0.0129847770341 0
-0.0115256188131 -0.00222518721499 0
0.0215087342388 -0.0430248995026 0
-0.00654817751763 -0.0766056477105 0
0.00440199978243 -0.017221440412 0
-0.00684547303749 -0.138027469612 0
0.0159568585028 -0.0848772497968 0
0.00967322184314 -0.000598543369464 0
-0.0107612934252 -0.000909665115781 0
0.00700892085538 -0.00263878673235 0
0.0136373435177 -0.0699020550463 0
-0.0027233829432 -0.142932415586 0
-0.0214100975859 -0.0473318634546 0
-0.0198917475231 -0.0668248399743 0
-0.00334458977301 -0.0969671454318 0
-0.0180200904035 -0.0187583322736 0
0.0200468560198 -0.0631269387549 0
0.00971546094915 -0.0854295574076 0
0.0107142127864 -0.121376639798 0
0.00906677477885 -0.00167860313281 0
0.00981960365475 -0.000983053591593 0
-0.0106221580929 -0.00118593410577 0
-0.00570129290298 -0.0273702692741 0
-0.00665632853963 -0.0398556825168 0
0.000226773512854 -0.14083220103 0
0.00383929206518 -0.140131068471 0
-0.00870326028926 -0.00111927102486 0
0.00760840697922 -0.000878350632911 0
0.0153196656695 -0.00771350983498 0
0.00974460203254 -0.00121955303731 0
-0.0106373956899 -0.00138153319399 0
0.0109583809347 -0.00104856470101 0
0.00317034669206 -0.0374517835929 0
-0.0113538016793 -0.106393610802 0
-0.0220860184166 -0.0335006956363 0
0.00685038041231 -0.074107090084 0
0.00782894143078 -0.0022648453901 0
0.0136581909882 -0.0923215399297 0
-0.00810649599847 -0.00400512190354 0
-0.0107361729505 -0.00157215594633 0
0.0100187439526 -0.00150267558443 0
-0.0158908154153 -0.0916002406408 0
0.00196560740247 -0.112423892321 0
-0.0173448097552 -0.0307993320349 0
-0.0110308350092 -0.000869957421949 0
0.0108998933049 -0.00108006434459 0
0.00990976768592 -0.000369759617543 0
0.00974723636183 -0.000597609204535 0
-0.0105367606943 -0.000902581281463 0
0.00941392958501 -0.00142576929465 0
0.00702540630141 -0.00379107161198 0
-0.00717669574719 -0.00613436847019 0
0.0168979748653 -0.0107680045292 0
0.0197862572457 -0.0285611633616 0
-0.0208750697635 -0.0319483275824 0
-0.0155981190314 -0.0796283388199 0
0.00369598792271 -0.0939566950141 0
-0.0137256198949 -0.00485830731699 0
-0.00793869035063 -0.10146238447 0
-0.0165603515208 -0.00928069236337 0
0.0202539592195 -0.0548440667366 0
-0.0150441100739 -0.0123774245107 0
-0.0205532600075 -0.0601376424565 0
0.00977465388479 -0.000363816796366 0
0.0217318490084 -0.0395447866182 0
-0.0106949272624 -0.000795525675508 0
-0.0221470713574 -0.0431842964141 0
-0.0104161994944 -0.0788105575584 0
0.0100402191016 -0.0787461315058 0
0.0110459966039 -0.0156891241854 0
0.0135309605378 -0.0140298504766 0
-0.0121460626473 -0.0213400124182 0
-0.0162025712484 -0.0882319946055 0
-0.00199219543288 -0.123118890647 0
0.0109284169225 -0.0995286914515 0
0.0111812827314 -0.111125494517 0
0.0199162783269 -0.0393022494532 0
-0.0207513573254 -0.0443568404262 0
0.00737150025293 -0.100897411008 0
-0.0123760082015 -0.0948674079264 0
0.00920248696162 -0.000433049360098 0
-0.00970058580377 -0.00106551275638 0
-0.0100989991817 -0.0027831899952 0
0.0173672154951 -0.0106797338118 0
0.0150421723171 -0.0670535956481 0
0.0109252159895 -0.115228395487 0
0.0123299099355 -0.00474642116983 0
0.00885062639142 -0.000628214357127 0
-0.00823536144736 -0.0490112270114 0
0.00565198653179 -0.137400525251 0
0.00985544337139 -0.000501035741273 0
-0.0111209577683 -0.000981743443258 0
-0.00417587048395 -0.0659737529937 0
-0.0105772510638 -0.00168787121099 0
0.0096063954617 -0.0015701550691 0
-0.0121390486243 -0.00232684603331 0
-0.0191615634515 -0.0148215589398 0
-0.00926715752246 -0.00147332409704 0
-0.0138573820522 -0.00737932589613 0
0.00974995035721 -0.000355631943287 0
-0.0106284841893 -0.000988559549491 0
0.0124422900233 -0.00828592698518 0
-0.0037840635897 -0.000591216949896 0
0.0032857972267 -0.000435486253578 0
-0.0114472126143 -0.00120782299203 0