# vtk DataFile Version 2.0
Generated with Solid Solver
ASCII
DATASET UNSTRUCTURED_GRID
POINTS 1163 float 
0.0 3.5 0.0
2.2 3.5 0.0
2.2 4.0 0.0
0.0 4.0 0.0
0.0687499999999 3.5 0.0
0.1375 3.5 0.0
0.20625 3.5 0.0
0.275 3.5 0.0
0.343749999999 3.5 0.0
0.412499999999 3.5 0.0
0.481249999999 3.5 0.0
0.549999999999 3.5 0.0
0.618749999998 3.5 0.0
0.687499999998 3.5 0.0
0.756249999998 3.5 0.0
0.824999999998 3.5 0.0
0.893749999998 3.5 0.0
0.962499999997 3.5 0.0
1.03125 3.5 0.0
1.1 3.5 0.0
1.16875 3.5 0.0
1.2375 3.5 0.0
1.30625 3.5 0.0
1.375 3.5 0.0
1.44375 3.5 0.0
1.5125 3.5 0.0
1.58125 3.5 0.0
1.65 3.5 0.0
1.71875 3.5 0.0
1.7875 3.5 0.0
1.85625 3.5 0.0
1.925 3.5 0.0
1.99375 3.5 0.0
2.0625 3.5 0.0
2.13125 3.5 0.0
2.2 3.56430812579 0.0
2.2 3.6227083524 0.0
2.2 3.67574343203 0.0
2.2 3.72390623714 0.0
2.2 3.76764438299 0.0
2.2 3.80736436348 0.0
2.2 3.84343531161 0.0
2.2 3.87619247056 0.0
2.2 3.90594026646 0.0
2.2 3.93295517223 0.0
2.2 3.9574882542 0.0
2.2 3.97976750927 0.0
2.18000003888 4.0 0.0
2.15999995974 4.0 0.0
2.13999995594 4.0 0.0
2.12000003893 4.0 0.0
2.0999999813 4.0 0.0
2.07999993507 4.0 0.0
2.06000001965 4.0 0.0
2.04000002354 4.0 0.0
2.01999993997 4.0 0.0
1.99999999426 4.0 0.0
1.98000004623 4.0 0.0
1.95999996625 4.0 0.0
1.93999996787 4.0 0.0
1.92000005069 4.0 0.0
1.90000001292 4.0 0.0
1.87999994967 4.0 0.0
1.86000003245 4.0 0.0
1.84000003166 4.0 0.0
1.81999995194 4.0 0.0
1.80000002065 4.0 0.0
1.78000005962 4.0 0.0
1.75999997703 4.0 0.0
1.73999998149 4.0 0.0
1.72000006236 4.0 0.0
1.70000000651 4.0 0.0
1.67999995967 4.0 0.0
1.66000004242 4.0 0.0
1.64000004304 4.0 0.0
1.61999996152 4.0 0.0
1.6000000096 4.0 0.0
1.58000006667 4.0 0.0
1.55999998704 4.0 0.0
1.53999998381 4.0 0.0
1.52000006764 4.0 0.0
1.5000000299 4.0 0.0
1.47999996242 4.0 0.0
1.46000004337 4.0 0.0
1.4400000454 4.0 0.0
1.41999996386 4.0 0.0
1.40000002834 4.0 0.0
1.38000006734 4.0 0.0
1.35999998576 4.0 0.0
1.33999998537 4.0 0.0
1.32000006658 4.0 0.0
1.30000001585 4.0 0.0
1.27999996279 4.0 0.0
1.26000004759 4.0 0.0
1.24000004493 4.0 0.0
1.2199999616 4.0 0.0
1.20000000906 4.0 0.0
1.18000006792 4.0 0.0
1.15999998616 4.0 0.0
1.13999999119 4.0 0.0
1.12000007157 4.0 0.0
1.1 4.0 0.0
1.07999992843 4.0 0.0
1.06000000881 4.0 0.0
1.04000001384 4.0 0.0
1.01999993209 4.0 0.0
0.999999990948 4.0 0.0
0.98000003841 4.0 0.0
0.959999955072 4.0 0.0
0.939999952416 4.0 0.0
0.920000037214 4.0 0.0
0.899999984154 4.0 0.0
0.879999933427 4.0 0.0
0.860000014636 4.0 0.0
0.840000014246 4.0 0.0
0.819999932662 4.0 0.0
0.79999997166 4.0 0.0
0.780000036145 4.0 0.0
0.759999954604 4.0 0.0
0.73999995663 4.0 0.0
0.72000003758 4.0 0.0
0.699999970103 4.0 0.0
0.679999932361 4.0 0.0
0.660000016189 4.0 0.0
0.640000012962 4.0 0.0
0.61999993333 4.0 0.0
0.599999990406 4.0 0.0
0.58000003848 4.0 0.0
0.559999956964 4.0 0.0
0.539999957581 4.0 0.0
0.520000040329 4.0 0.0
0.499999993489 4.0 0.0
0.479999937647 4.0 0.0
0.460000018512 4.0 0.0
0.440000022972 4.0 0.0
0.419999940378 4.0 0.0
0.399999979352 4.0 0.0
0.380000048063 4.0 0.0
0.359999968347 4.0 0.0
0.339999967553 4.0 0.0
0.320000050328 4.0 0.0
0.299999987077 4.0 0.0
0.279999949312 4.0 0.0
0.260000032129 4.0 0.0
0.240000033752 4.0 0.0
0.219999953776 4.0 0.0
0.200000005737 4.0 0.0
0.180000060031 4.0 0.0
0.159999976465 4.0 0.0
0.139999980354 4.0 0.0
0.120000064926 4.0 0.0
0.100000018697 4.0 0.0
0.0799999610675 4.0 0.0
0.0600000440571 4.0 0.0
0.0400000402596 4.0 0.0
0.0199999611169 4.0 0.0
0.0 3.97976750927 0.0
0.0 3.9574882542 0.0
0.0 3.93295517223 0.0
0.0 3.90594026646 0.0
0.0 3.87619247056 0.0
0.0 3.84343531161 0.0
0.0 3.80736436348 0.0
0.0 3.76764438299 0.0
0.0 3.72390623714 0.0
0.0 3.67574343203 0.0
0.0 3.6227083524 0.0
0.0 3.56430812579 0.0
0.249757963562 3.75212589829 0.0
1.94999996706 3.74954522137 0.0
0.488710285893 3.75947702441 0.0
0.726520490699 3.7655965719 0.0
0.967283134849 3.7597072979 0.0
1.20619032017 3.75831098673 0.0
1.45842774915 3.76733088374 0.0
1.69012076678 3.7622332834 0.0
0.130754044069 3.86878249167 0.0
2.06924595593 3.86878249167 0.0
1.8299999918 3.84622455633 0.0
1.56816462369 3.85034872999 0.0
0.369913859351 3.84868157925 0.0
0.608733620231 3.84706187144 0.0
1.33069778866 3.84790908234 0.0
0.84323446252 3.84762979148 0.0
1.08873170817 3.84705870913 0.0
0.250539365135 3.87785524304 0.0
1.94967747948 3.87849609822 0.0
1.73218750075 3.8916046151 0.0
0.468661874066 3.89189322974 0.0
1.47574192429 3.89639134117 0.0
0.704258110321 3.8963912684 0.0
1.18331258449 3.8976320365 0.0
0.949999953744 3.89208018478 0.0
1.64795374468 3.91749779939 0.0
0.548928463645 3.91905583847 0.0
1.38619509199 3.91928594438 0.0
0.788926872841 3.91906062101 0.0
1.27071160784 3.91777932845 0.0
1.02999997296 3.91685174433 0.0
1.81733541416 3.69950870754 0.0
1.86999999106 3.91823503401 0.0
0.071252620538 3.93011431841 0.0
2.12874737946 3.93011431841 0.0
2.07400690796 3.74293885365 0.0
0.125993092043 3.74293885365 0.0
0.32995676804 3.92118147353 0.0
2.00999996712 3.92542383197 0.0
0.190000032884 3.92542383197 0.0
1.56698738743 3.72218882919 0.0
1.33000000474 3.72531695685 0.0
0.848014510843 3.71986098938 0.0
1.09024665585 3.72285801424 0.0
0.610276609989 3.72290563624 0.0
1.54999998543 3.92414142844 0.0
0.629999973146 3.92414137652 0.0
0.869999974031 3.92414141814 0.0
1.11000003579 3.92414141267 0.0
1.79030638642 3.92649353654 0.0
0.370434802927 3.72513294336 0.0
0.410903135411 3.92892991244 0.0
1.33000002597 3.93737911571 0.0
0.129927648482 3.94112154503 0.0
2.07007235152 3.94112154503 0.0
1.93000000928 3.93875927586 0.0
0.26999999072 3.93875927586 0.0
1.40966706061 3.83880068991 0.0
0.770332962441 3.83880062149 0.0
1.24904900022 3.84293377683 0.0
1.01033287484 3.83880060723 0.0
0.530342681434 3.83880307444 0.0
0.189895273961 3.63486992823 0.0
2.00989835291 3.62845703161 0.0
0.998888153878 3.61665036233 0.0
1.47894673873 3.61675180774 0.0
0.51733910646 3.62937665489 0.0
0.705112628302 3.618743723 0.0
1.66672137035 3.63168728155 0.0
1.18508242495 3.61871739348 0.0
1.71000003443 3.94408608591 0.0
0.489999965568 3.94463856597 0.0
1.44983363802 3.94422347836 0.0
0.729999997105 3.94465012565 0.0
1.21016639734 3.94422345842 0.0
0.928621800545 3.94440037102 0.0
2.00626203014 3.81543543551 0.0
0.193627962274 3.81528928332 0.0
1.66628164144 3.83559795895 0.0
1.75661718781 3.81065958113 0.0
1.61143779865 3.94859227761 0.0
0.991673865748 3.95161238438 0.0
0.0604617941233 3.86281264864 0.0
2.13953820588 3.86281264865 0.0
0.300965570716 3.8114148258 0.0
0.2970894797 3.66361086085 0.0
0.398842167194 3.60449226805 0.0
1.51000004877 3.95218393067 0.0
1.90135619383 3.81213273629 0.0
0.669405272842 3.95495208979 0.0
1.07142780558 3.94866325309 0.0
0.592085094025 3.94901139323 0.0
0.831051660929 3.94633985879 0.0
1.14940528892 3.9549521224 0.0
0.44409344258 3.82719938178 0.0
1.49646539728 3.82376850413 0.0
0.683434082651 3.82631713605 0.0
0.92337834777 3.8234861632 0.0
1.16343437877 3.82631615351 0.0
1.90749084149 3.65350700271 0.0
1.8278758005 3.95083911942 0.0
0.37243073327 3.95235211027 0.0
1.29345662549 3.60569899261 0.0
0.813407949226 3.60572380122 0.0
1.29317153636 3.96216077293 0.0
1.367704599 3.96055764734 0.0
1.97071235041 3.96038324024 0.0
0.22928764959 3.96038324024 0.0
2.10610581798 3.66047411138 0.0
0.0938941820177 3.66047411138 0.0
1.67000000105 3.95862953468 0.0
1.74869816704 3.96079301687 0.0
0.531976761939 3.96138655466 0.0
0.451361042387 3.96112774725 0.0
0.771976832233 3.96138887156 0.0
1.88843481911 3.95881554986 0.0
1.61277513709 3.78538823015 0.0
2.13311214501 3.79435403671 0.0
0.0668878549946 3.79435403671 0.0
1.76678797151 3.60286552601 0.0
0.311702446283 3.9611157379 0.0
1.02877762737 3.96159282031 0.0
1.40830122607 3.96143175203 0.0
1.25214210333 3.957355862 0.0
1.59476493393 3.9048774062 0.0
1.56950979124 3.96148017208 0.0
0.890017020275 3.96125792969 0.0
2.03089110475 3.96040268709 0.0
0.169108895255 3.96040268709 0.0
0.939722125942 3.68539157065 0.0
1.41686981874 3.69192854313 0.0
0.0426348006718 3.96101756902 0.0
2.15736519933 3.96101756902 0.0
1.36077308019 3.79177204211 0.0
0.817982383499 3.78962669257 0.0
1.05834720932 3.78780184893 0.0
0.578349529346 3.78781530011 0.0
1.77992711518 3.87652731382 0.0
0.417982153133 3.87594990465 0.0
1.84363633012 3.77741329286 0.0
1.52244994479 3.87704541475 0.0
0.657426528912 3.87734838249 0.0
1.13742651778 3.87734834025 0.0
0.898116026439 3.8800466833 0.0
1.56984259435 3.64465823131 0.0
1.08983016076 3.6446495206 0.0
0.609942357805 3.64483976081 0.0
1.29451769374 3.79627773068 0.0
0.0893439668432 3.96574839433 0.0
2.11065603316 3.96574839433 0.0
2.01422398896 3.86980625824 0.0
0.185776011038 3.86980625824 0.0
0.305957237756 3.87340573745 0.0
1.72977480551 3.68665973332 0.0
1.25418096296 3.69351129461 0.0
0.629999973146 3.96272981435 0.0
1.11000003579 3.96272983221 0.0
0.772975283819 3.69297597031 0.0
1.89089074715 3.86951346173 0.0
0.445448577516 3.69456159386 0.0
1.82621986864 3.89678318705 0.0
2.07135424223 3.81165410377 0.0
0.128645757768 3.81165410377 0.0
0.373320289473 3.89968791662 0.0
1.79000004014 3.96541718891 0.0
0.383302070088 3.78976392323 0.0
0.409457623385 3.96502881851 0.0
1.55531527123 3.78787141386 0.0
1.34861332978 3.89383287415 0.0
0.593245985735 3.89483466551 0.0
0.833245353375 3.89479604398 0.0
1.0732444554 3.8948349405 0.0
0.911896623122 3.59194725763 0.0
0.187580554011 3.70699710313 0.0
2.01241944599 3.70699710313 0.0
1.39201907571 3.59233063354 0.0
2.09635520798 3.90516200201 0.0
0.103644792024 3.90516200201 0.0
1.89086147526 3.72621461413 0.0
1.02102684616 3.70044819701 0.0
1.49813234221 3.70194667869 0.0
0.53965669049 3.70593418829 0.0
1.63719578665 3.69772473547 0.0
0.685447658936 3.70127585046 0.0
1.16541741817 3.70128744764 0.0
0.901649266036 3.76287226775 0.0
0.992351690321 3.90662993531 0.0
1.69131894868 3.90657323657 0.0
1.9699561555 3.91599371502 0.0
0.230043844497 3.91599371502 0.0
1.61980840676 3.85005402918 0.0
2.04685187594 3.90639759008 0.0
0.153148124058 3.90639759008 0.0
0.512139828486 3.90538520837 0.0
1.43057458921 3.90702644399 0.0
0.749149996349 3.90689574876 0.0
[...]
POINT_DATA 1163
VECTORS Displacement float
0.0 0.0 0
0.0 0.0 0
0.0112740894445 -0.00146448428829 0
-0.00963708175755 -0.00192848825706 0
0.0 0.0 0
0.0 0.0 0
0.0 0.0 0
0.0 0.0 0
0.0 0.0 0
0.0 0.0 0
0.0 0.0 0
0.0 0.0 0
0.0 0.0 0
0.0 0.0 0
0.0 0.0 0
0.0 0.0 0
0.0 0.0 0
0.0 0.0 0
0.0 0.0 0
0.0 0.0 0
0.0 0.0 0
0.0 0.0 0
0.0 0.0 0
0.0 0.0 0
0.0 0.0 0
0.0 0.0 0
0.0 0.0 0
0.0 0.0 0
0.0 0.0 0
0.0 0.0 0
0.0 0.0 0
0.0 0.0 0
0.0 0.0 0
0.0 0.0 0
0.0 0.0 0
0.00415318084219 -0.00302101839353 0
0.00728975411969 -0.00384164026938 0
0.00961644479909 -0.00381237894401 0
0.0109968284164 -0.00338862777895 0
0.0117499083825 -0.00288472380226 0
0.0120697543661 -0.00239775125314 0
0.0120781012413 -0.00202449472976 0
0.0119827392247 -0.00175344488717 0
0.0118049424887 -0.00158109152594 0
0.0116252901507 -0.00150299019124 0
0.0114751529866 -0.00146995394176 0
0.0113612922935 -0.00146318355554 0
0.0112754119347 -0.00154789846013 0
0.011273403988 -0.00161425394003 0
0.0112551168746 -0.00166322199426 0
0.0112117196701 -0.00169837693621 0
0.0111372816599 -0.00172936596259 0
0.0110282075804 -0.00177295690198 0
0.0108765032411 -0.00182731701091 0
0.0106895348453 -0.00192449749083 0
0.0104553959269 -0.0020553275954 0
0.0101919482586 -0.00224988784906 0
0.00987182552339 -0.00250241046133 0
0.00951342671075 -0.00284503990998 0
0.00912759846872 -0.00328474002406 0
0.00868656357575 -0.00382373296659 0
0.00822724908775 -0.00449040355723 0
0.00770560902711 -0.00528477957808 0
0.00715400050981 -0.00624519069256 0
0.00656637777755 -0.00736432967033 0
0.00595034697833 -0.00869497476331 0
0.00526349336002 -0.0102441932335 0
0.0045784883571 -0.0120523801046 0
0.00391148387907 -0.0141369927241 0
0.0031762416283 -0.0165326815055 0
0.00246663344073 -0.0193010059938 0
0.00170414025858 -0.022536221043 0
0.00108545755597 -0.0262449059857 0
0.000475990886974 -0.0305735031889 0
-5.16673200022e-05 -0.0356925613678 0
-0.000218295563279 -0.0418022015547 0
0.00030868964259 -0.0493047369592 0
0.00183831694289 -0.0592210878965 0
0.00370173847824 -0.0683268431686 0
0.00535985102755 -0.0771087165063 0
0.00684102295831 -0.0852721975235 0
0.0080715987829 -0.093022048935 0
0.00907934826547 -0.100314379786 0
0.00982734011436 -0.107172527545 0
0.0103625142037 -0.113545471923 0
0.0105945774524 -0.119487925071 0
0.0106011820691 -0.125001822715 0
0.0103695740098 -0.130036028821 0
0.00993378538099 -0.134572391367 0
0.00926543078417 -0.138619341634 0
0.00842559437888 -0.142152954844 0
0.00741904457644 -0.145162486751 0
0.00624586596563 -0.147649164253 0
0.00494584031261 -0.149594773927 0
0.00352955327536 -0.150992061601 0
0.00201090063786 -0.15183029692 0
0.000303253387609 -0.152052990689 0
-0.00127634296341 -0.151835557817 0
-0.00274297267411 -0.151018330646 0
-0.00412469519845 -0.149643440357 0
-0.00541443119136 -0.147718317245 0
-0.00656038990171 -0.145255631615 0
-0.00755512596931 -0.142264503808 0
-0.00837913483488 -0.138750775315 0
-0.00901415424297 -0.13472931262 0
-0.00942932190307 -0.130218951191 0
-0.00967800102974 -0.125206893837 0
-0.00968474092152 -0.119725562215 0
-0.00940321702884 -0.113769189007 0
-0.00885731623823 -0.107428745049 0
-0.00803910585074 -0.10062336408 0
-0.00705027268653 -0.0933585344314 0
-0.00571254368868 -0.0856683418731 0
-0.00427633443493 -0.0775299634116 0
-0.00258196699123 -0.0688228049834 0
-0.000729330812805 -0.0597437288602 0
0.000998261055476 -0.0499607715802 0
0.00154277308632 -0.0421561094737 0
0.00154125093294 -0.0359299668855 0
0.00126117510843 -0.0307372876503 0
0.000712391796298 -0.0262695390333 0
0.00012490025489 -0.0224831176241 0
-0.000511437486976 -0.0191993885266 0
-0.00117276534873 -0.0163315687577 0
-0.00182595574891 -0.0138295355775 0
-0.00242690177151 -0.0116487920299 0
-0.00305534820411 -0.00975519075523 0
-0.0036328888711 -0.00811038955207 0
-0.00418677990556 -0.0067031831063 0
-0.00469004325578 -0.00548260129009 0
-0.0051802733785 -0.00442305234014 0
-0.0056220916896 -0.00351124484883 0
-0.00605770222637 -0.00274424830734 0
-0.00644114119101 -0.00209476577357 0
-0.00680159878462 -0.00156417211754 0
-0.00711757778932 -0.00111389450091 0
-0.00742235855309 -0.00075299765893 0
-0.00770717865799 -0.000470106676587 0
-0.00795465831784 -0.000250114803044 0
-0.00818436298706 -9.66774872275e-05 0
-0.00839038222566 9.42241638131e-06 0
-0.00858098733627 6.48545303866e-05 0
-0.00874617630858 8.20956010255e-05 0
-0.00890072993726 5.81896914664e-05 0
-0.00903434356014 4.39914155809e-06 0
-0.00915658735299 -8.08711906961e-05 0
-0.00926520662637 -0.000194698504188 0
-0.00935428791846 -0.000327131209281 0
-0.00943354090515 -0.000480664966787 0
-0.00949717469282 -0.000645665481354 0
-0.00954931863941 -0.000825653670388 0
-0.00958726967023 -0.00101022465233 0
-0.0096136949126 -0.00120003435716 0
-0.00962951383266 -0.00138946082405 0
-0.00963644086527 -0.00157483610105 0
-0.00963748728272 -0.00175464447127 0
-0.00946233332992 -0.00192809332418 0
-0.00927606108793 -0.00193094129587 0
-0.00907892087033 -0.00194326832194 0
-0.00886486257907 -0.0019717900231 0
-0.00861902835936 -0.00203309702778 0
-0.00830675836141 -0.00212697074546 0
-0.00791641938191 -0.00225104105208 0
-0.00736122480327 -0.00240535299909 0
-0.00659338731646 -0.00254081400762 0
-0.00552785709385 -0.00259487236909 0
-0.00404583142633 -0.00242459495236 0
-0.00223799113985 -0.00179405894042 0
-0.00814887016642 -0.000193053422262 0
0.0135839536004 -0.00276910338677 0
-0.0126741388139 -0.00316404797844 0
-0.0200551832538 -0.0213256396384 0
-0.0170017199573 -0.0552212493238 0
0.000941674888444 -0.0698896541341 0
0.0193034773193 -0.0534692635673 0
0.0207420825349 -0.0189505548847 0
-0.00864510257555 -0.000705656220079 0
0.012238614636 -0.00171313544459 0
0.0152536610683 -0.00759861699565 0
0.0218749942888 -0.0477500994185 0
-0.00987281010682 -0.000342943672605 0
-0.0145581308646 -0.0101738008165 0
0.0114997742178 -0.0914428465256 0
-0.020782749204 -0.0502615559909 0
-0.00907902687234 -0.0932330548752 0
-0.00894944082403 9.55459462821e-05 0
0.0126031616141 -0.00277358391819 0
0.0152558635229 -0.0171338884565 0
-0.0100563815329 -0.0021869284738 0
0.0185320800473 -0.0789474905396 0
-0.0144719490803 -0.0227844329844 0
-0.00096805648148 -0.115120823214 0
-0.0167484403139 -0.0843005789843 0
0.0155183085308 -0.0329246742926 0
-0.00950844960982 -0.00573553733607 0
0.0138731508589 -0.104757783717 0
-0.0153003463811 -0.0432115549631 0
0.00626523243042 -0.119566443114 0
-0.0121214353935 -0.107110780251 0
0.0158050780251 -0.00678229409888 0
0.0116036391377 -0.00539245207822 0
-0.00906004175738 -0.00127900508035 0
0.0116523908566 -0.00167534464902 0
0.0118679264922 -0.00181088829327 0
-0.00713967592238 -0.000816725213377 0
-0.00893066850818 8.73223594365e-05 0
0.01148719537 -0.00194792948412 0
-0.00897197637152 -0.000195436161495 0
0.0209072530999 -0.0306303608908 0
0.0105860396203 -0.0557087453132 0
-0.0198251113164 -0.0324256013475 0
-0.00825833930975 -0.0562486093463 0
-0.0160604582916 -0.00870880465441 0
0.0173426004136 -0.0626822669631 0
-0.00995825561477 -0.0124076680018 0
-0.0161894054471 -0.0694258538513 0
-0.00674442630012 -0.120224658442 0
0.0114266494595 -0.0107258536876 0
-0.00957523861186 -0.00084277379776 0
-0.00880637275793 -0.00076410140706 0
0.0102007197405 -0.119739264862 0
-0.00910017263423 -0.000703110758356 0
0.0114342584108 -0.00170167518719 0
0.0108675642945 -0.00326186412511 0
-0.00889344619476 0.000168668317914 0
0.0169649054927 -0.0782106797939 0
-0.0202130261554 -0.033277861357 0
0.00478794145557 -0.0957805464018 0
-0.0147826501911 -0.0813444464348 0
-0.0127182006898 -0.00486705280272 0
-0.00485123765691 -0.000433980837861 0
0.00856765099657 -0.00150445665294 0
-0.00977078821581 -0.0246082053754 0
0.0126948694171 -0.0208470055474 0
-0.00997437739023 -0.00309561667558 0
-0.0133837589517 -0.00942196011921 0
0.0150474957508 -0.0117574155989 0
-0.000655928542547 -0.029490669378 0
0.0103996748579 -0.0205710337825 0
-0.00814939980741 -0.00288882221701 0
0.0148271144175 -0.0968889158091 0
-0.00959186500118 -0.0283124635239 0
0.00124996340023 -0.13150149833 0
-0.0140645485074 -0.0912445559255 0
0.0129631123236 -0.00201122482976 0
-0.00840538831451 -0.000254028662781 0
0.0206219521583 -0.0261021129027 0
0.0184025332535 -0.0133153674827 0
0.012639917047 -0.0441139448793 0
-0.0123937347881 -0.109492720442 0
-0.0085358480373 -0.00143496426284 0
0.0121468266502 -0.00182637493688 0
-0.00921740074328 -5.50890693833e-05 0
-0.00691235166693 -0.000492617544738 0
-0.00636205716703 -0.00113689374684 0
0.0144358624828 -0.0805560519735 0
0.0145418240182 -0.00414271764252 0
-0.00705079852407 -0.0174124924361 0
-0.00895857822871 -0.123776562738 0
-0.00757334367286 -0.00881020942242 0
-0.013141929215 -0.0594353270916 0
-0.00355637155958 -0.1339329932 0
-0.0111932661172 -0.00168988054279 0
0.0212570336158 -0.0589828773517 0
-0.0179300422736 -0.0182071569798 0
-0.0194650621584 -0.0630032291436 0
-0.002808196809 -0.0909262255376 0
0.0116174168822 -0.00305877254511 0
0.0096186689978 -0.00782790651254 0
-0.00846001105108 -0.000243273113708 0
0.00488112925096 -0.0251286173772 0
-0.0129867745567 -0.0134730595197 0
0.0074386997726 -0.132773378424 0
0.0115631459016 -0.120680205125 0
0.0105417524315 -0.00247315158422 0
-0.00899196834437 2.20175947797e-05 0
0.00918424931384 -0.0017678222378 0
-0.00515344143774 -0.000993249249654 0
0.00888149785281 -0.0281493696831 0
0.00817270630558 -0.0151418002618 0
-0.00705306339921 -0.00480981408925 0
-0.00776553927145 -0.00168228080918 0
-0.00818939906207 -0.0394393171216 0
0.00973385535328 -0.00466852498068 0
0.0224528578151 -0.0315833207702 0
0.0122044703092 -0.00203367069551 0
-0.00781565240939 -0.00142552041565 0
0.0113434885176 -0.00556355003648 0
-0.00865841898958 0.000130795421221 0
-0.0107287552971 -0.120461840907 0
0.0129145814856 -0.112064847361 0
0.00453421367147 -0.134679707568 0
0.0185567302947 -0.0465896704732 0
0.0119961637563 -0.0604224628151 0
-0.012207426714 -0.0826521646592 0
0.0110189415215 -0.00185820787952 0
-0.00915335936003 -0.000368458751828 0
-0.0159168140425 -0.0358698663218 0
0.01489994168 -0.0407875124081 0
-0.00930270961875 -0.00155066124264 0
0.0114484265044 -0.00162231029354 0
0.0137589306817 -0.0717731843555 0
-0.0215185492584 -0.0375612548689 0
-0.0114562394072 -0.0726092198814 0
-0.01520840841 -0.00752334555287 0
0.0150725598405 -0.0116265463281 0
-0.00998875926226 -0.000963444887596 0
0.0162180812702 -0.00649483100243 0
0.0205233611268 -0.063084546135 0
-0.0143498283756 -0.0156091617515 0
-0.00493949313255 -0.106540094348 0
-0.0188860707203 -0.0692606093002 0
0.0163825643208 -0.0196269265088 0
-0.00657486519948 -0.0349054248191 0
-0.0130508608762 -0.00644655140424 0
0.00862226115531 -0.0787355944642 0
-0.00931303994692 -0.00109949345586 0
0.0113392217774 -0.00167987399454 0
0.0124150054113 -0.00190451334006 0
-0.00874546246656 -0.000244534608754 0
-0.00919828406849 0.000118285623904 0
0.0175922237452 -0.0114354885524 0
0.00437174083103 -0.0499326586376 0
-0.00615371558778 -0.0124742777294 0
-0.00634890273868 -0.133401178984 0
-0.018872440196 -0.0206478785684 0
0.013414343683 -0.00448679793695 0
-0.0106912939799 -0.00201516299786 0
0.0130465940963 -0.00788611327184 0
0.0124939743767 -0.0017689027951 0
-0.00813077999056 -0.000756222596426 0
-0.00927198303252 -0.000259101592198 0
0.00809633536924 -0.0108478542664 0
-0.010314726865 -0.000737042533191 0
-0.00799735393031 -0.000779998290513 0
0.0223847000232 -0.0416906373812 0
0.0122661452939 -0.103335728336 0
-0.0115626948115 -0.00889651235484 0
-0.0184467235001 -0.0540429881037 0
-0.00978403695089 -0.106658902 0
-0.0104563996767 -0.0159480757207 0
-0.00675365376477 -0.00043266593163 0
0.0116832984082 -0.0018826376048 0
0.00825086980707 -0.0194339343139 0
0.0118646310343 -0.0016812705428 0
-0.00888162727771 -0.00095669822622 0
0.0145300802111 -0.00417735387815 0
-0.012466292888 -0.0459016412395 0
0.0186947440533 -0.0352907604923 0
-0.013487665866 -0.00480146407408 0
0.0197620163343 -0.0199912668417 0
-0.0176532281414 -0.0134336732731 0
-0.00232496603879 -0.052472424748 0
-0.0199083612766 -0.0470220097822 0
-0.0143611053969 -0.0971214144013 0
0.0151223201097 -0.0236027802005 0
0.0116281359968 -0.00241193320371 0
-0.00894170491571 4.05042740917e-05 0
0.0213023324748 -0.0359947608207 0
0.0118341555439 -0.00174004921008 0
-0.00889397181898 -0.00049121787173 0
-0.00993077188545 -0.00382620352053 0
0.0163995773616 -0.0922320110021 0
-0.0151060002274 -0.0321454565855 0
0.00280154477428 -0.11933049548 0
0.0112264013656 -0.00224399221383 0
-0.0066828617975 -0.00148493402853 0
-0.0120575489915 -0.104771781588 0
-0.00883617329169 -0.00160184745499 0
0.0118838350613 -0.00172544280159 0
0.0130693039686 -0.0940118487472 0
-0.00556236591583 -0.0226861643656 0
-0.00100114585856 -0.139469757499 0
-0.00880371228288 -7.19415641371e-06 0
-0.00897154255727 -0.000321130322757 0
0.00780767682696 -0.102905884974 0
0.013481613617 -0.00272301760511 0
0.00961924329618 -0.128934016359 0
0.0183649655967 -0.0111945352196 0
-0.00661489051359 -0.0740812323677 0
-0.017306006989 -0.0120446472127 0
0.0164635032629 -0.0847043900777 0
-0.0106290502042 -0.0218599443143 0
-0.00139257698752 -0.126370728372 0
0.00805796639532 -0.0361942500181 0
-0.0210648575594 -0.0485243909684 0
0.0082980334408 -0.00280996202222 0
0.00999028888344 -0.00334658184175 0
-0.00884060453053 0.000143496814097 0
-0.00643501178572 -0.0064839115684 0
-0.00830055967079 -0.0485696074633 0
0.0121235674398 -0.0716013280494 0
-0.0110193650763 -0.0731978715146 0
0.0089234301323 -0.00587746818582 0
0.0111831637617 -0.00173014622346 0
-0.00925962620079 -0.000709770586523 0
-0.00845606231301 8.32272260618e-06 0
0.0186730480656 -0.0181808968353 0
0.0106439700181 -0.00214199721666 0
-0.00910012694261 -0.000139546521831 0
-0.0115594014545 -0.00276556455413 0
0.0194463371393 -0.0713316371823 0
-0.0185270292201 -0.0246856707861 0
0.000338780735365 -0.0962105606286 0
-0.0174606070682 -0.0753235076517 0
0.00700398108372 -0.0017282199498 0
-0.00345893052659 -0.000409439251084 0
0.0126904904406 -0.0148379250665 0
-0.0143738777374 -0.0969769694724 0
-0.00913456751577 -0.00159226442418 0
0.00908671090582 -0.112777315391 0
-0.0193704086423 -0.0420219163881 0
-0.0125812713005 -0.0946464311238 0
-0.0121539496638 -0.00635672768856 0
-0.00264963678861 -0.000449414643692 0
0.00504091953878 -0.000992982475139 0
-0.00418292914497 -0.000619030682338 0
0.011990264559 -0.00402626179347 0
-0.00901219861858 0.000168838689255 0
0.0210392743563 -0.0463852302322 0
0.0148909885555 -0.0914287560716 0
-0.0168321863949 -0.0784521036278 0
-0.0111383779448 -0.00167215413824 0
0.0179281642529 -0.0716077709484 0
-0.011252734347 -0.016736211475 0
-0.00409239519461 -0.1204073918 0
0.0123434429552 -0.00179042535271 0
-0.00834483575186 -0.00103532039287 0
0.00698091169131 -0.0207026083804 0
0.0159822372164 -0.0551901577886 0
0.0126239008065 -0.00186818899607 0
-0.00777934220504 -0.000457964370275 0
-0.00711272778475 -0.00296509061132 0
0.0132045525488 -0.101210989085 0
-0.00590083668537 -0.0274697459486 0
-0.0119202595816 -0.0980185145071 0
0.000917441775679 -0.139452528683 0
0.0059286465468 -0.0646029695869 0
0.0188214253198 -0.0280512197734 0
0.0122005527268 -0.00208193477472 0
-0.00810678295329 -0.00171999056019 0
0.0148085328745 -0.0523781316352 0
0.00843567994283 -0.00678257134415 0
0.0171716599484 -0.00924613161024 0
-0.00207572404137 -0.0144458468692 0
0.00932875845806 -0.038059972815 0
-0.00751956480632 -0.0040076404319 0
-0.0168234263783 -0.0242376597284 0
-0.00677810989395 -0.000355375204155 0
-0.0206900546182 -0.0270268856706 0
-0.00971676200129 -0.000221553729112 0
0.0204223691179 -0.0523586513762 0
-0.0056915409184 -0.00145420004887 0
-0.0028786622059 -0.00107654550122 0
0.00536429877052 -0.00176262888969 0
0.0113746981841 -0.00165819365347 0
-0.00935890382614 -0.00134175991374 0
0.0133373154473 -0.00586965575105 0
0.00150873879687 -0.0182175964908 0
-0.00978940253387 -0.00765313366156 0
-0.00905765004629 -0.00167346798102 0
0.0116632600347 -0.00163705154687 0
-0.00723110890546 -0.00266923918322 0
0.0120482216327 -0.00262614328266 0
-0.0081193040613 -0.000907882937708 0
-0.00583045791869 -0.0169167884504 0
0.00987389793643 -0.0122707418236 0
-0.0136730085377 -0.00464218107129 0
-0.00931092766239 1.24275155781e-05 0
0.0179624333041 -0.0621050444007 0
-0.0150538000859 -0.0665523493434 0
0.00731942862898 -0.0457937231892 0
-0.0111034578825 -0.115989234046 0
0.0121344501432 -0.110842185317 0
0.0125806641083 -0.00178513505179 0
-0.00850656639842 -0.000454866615088 0
0.00892463877298 -0.00519438466321 0
0.00470478122598 -0.07822466098 0
-0.00939571954782 -0.129253692664 0
-0.0209759144574 -0.0274909909616 0
-0.0209922046185 -0.0410273848322 0
-0.0124198863701 -0.0878527698433 0
-0.0133979318847 -0.00679181591844 0
0.0145786426248 -0.0836603171273 0
0.0115736149602 -0.121075100115 0
0.00567716150132 -0.140639296542 0
0.0127089767881 -0.00448655826569 0
0.0115676415616 -0.00167060411498 0
-0.00908118304284 -0.000985713319046 0
-0.00543235779703 -0.010112481031 0
-0.00485211252047 -0.0153360426349 0
-0.00769560499844 -0.133029424306 0
-0.00462063114054 -0.139257566312 0
-0.00626581985442 -0.000741310311885 0
0.0108770722788 -0.00171693693728 0
0.0204178682953 -0.0201047101807 0
0.0118652833299 -0.00170654983232 0
-0.00887245263705 -0.0012759525633 0
0.0146642984073 -0.00515199967493 0
0.0105352965968 -0.0859868856502 0
-0.00621601638466 -0.0628388980398 0
-0.0188378512807 -0.0166101170289 0
-0.00289886958517 -0.0757447281387 0
0.00782066578653 -0.00894982789548 0
0.00531335909932 -0.104416915853 0
-0.00803329492257 -0.000458887593231 0
-0.0093998132007 -0.00169394501595 0
0.0113940834762 -0.00157496241254 0
-0.0187573079132 -0.0627858858191 0
-0.00738103669374 -0.108617930796 0
-0.0125798641229 -0.0119780305719 0
-0.00880574083296 -4.55945889923e-05 0
0.0150745315611 -0.00451029023606 0
0.0126475599634 -0.00224770553525 0
0.0114559387436 -0.00175625572356 0
-0.00903502919293 -0.000473748136148 0
0.0111897773471 -0.00676465565184 0
0.00664874890166 -0.0127969517958 0
-0.00751467541674 -0.00121265921938 0
0.0216592783719 -0.0253122464263 0
0.0218640184401 -0.0542801318103 0
-0.0161611211874 -0.0137302275483 0
-0.0204676193379 -0.0580864761742 0
-0.00614508151097 -0.0925409803471 0
-0.0104429581824 -0.000885074852012 0
-0.0156268224948 -0.0860107850995 0
-0.0122802863417 -0.0028247119918 0
0.0176995782871 -0.0824608149758 0
-0.0113737680668 -0.0037912065618 0
-0.0182288142702 -0.0310173181188 0
0.0119841875556 -0.00208403947292 0
0.0198151616658 -0.0614289115817 0
-0.00889236153491 -0.00010168667054 0
-0.0197505557685 -0.0225550234281 0
-0.0178216821776 -0.064583331672 0
0.000467474561649 -0.083705228609 0
0.0162358279692 -0.0405945242675 0
0.018936827446 -0.0356633321409 0
-0.00934584420759 -0.00747307100878 0
-0.0155505610004 -0.0517542486251 0
-0.0102767910904 -0.113076925005 0
0.0102323093107 -0.129804725778 0
0.0082792582482 -0.136258631137 0
0.0202984795137 -0.0684640788509 0
-0.0163927139922 -0.0200630268591 0
-0.00223660199345 -0.103974093943 0
-0.018395818789 -0.0741668139384 0
0.00982112832059 -0.00295073758779 0
-0.00892799647021 8.13354286879e-05 0
-0.00882712927544 -7.10055625902e-05 0
0.0214513700426 -0.0232807292754 0
0.0147234142324 -0.101405823803 0
0.00341454916814 -0.127861804127 0
0.0167444947581 -0.0149100871324 0
0.00922824394218 -0.00396846869559 0
-0.00488932670072 -0.0189343754428 0
-0.00274133622104 -0.140307779537 0
0.0134204628252 -0.0023872323666 0
-0.00840022604768 -0.000142287628679 0
-0.0128527877753 -0.0590874493836 0
-0.00861374471346 -0.00168967229641 0
0.0120596786672 -0.00182521797675 0
-0.00950762173187 -6.00596605927e-05 0
-0.0146445732584 -0.0059783889204 0
-0.00870737933275 0.000131264716138 0
-0.0106473059387 -0.00175208390329 0
0.0118189271568 -0.00288465268589 0
-0.00895398239118 0.000141697748942 0
0.0171933587439 -0.0232484980854 0
-0.00255500708112 -0.000310497583534 0
0.00493399908314 -0.0009492640832 0
-0.00904637885027 9.83272357958e-05 0