# vtk DataFile Version 2.0
Generated with Solid Solver
ASCII
DATASET UNSTRUCTURED_GRID
POINTS 1163 float 
0.0 3.5 0.0
2.2 3.5 0.0
2.2 4.0 0.0
0.0 4.0 0.0
0.0687499999999 3.5 0.0
0.1375 3.5 0.0
0.20625 3.5 0.0
0.275 3.5 0.0
0.343749999999 3.5 0.0
0.412499999999 3.5 0.0
0.481249999999 3.5 0.0
0.549999999999 3.5 0.0
0.618749999998 3.5 0.0
0.687499999998 3.5 0.0
0.756249999998 3.5 0.0
0.824999999998 3.5 0.0
0.893749999998 3.5 0.0
0.962499999997 3.5 0.0
1.03125 3.5 0.0
1.1 3.5 0.0
1.16875 3.5 0.0
1.2375 3.5 0.0
1.30625 3.5 0.0
1.375 3.5 0.0
1.44375 3.5 0.0
1.5125 3.5 0.0
1.58125 3.5 0.0
1.65 3.5 0.0
1.71875 3.5 0.0
1.7875 3.5 0.0
1.85625 3.5 0.0
1.925 3.5 0.0
1.99375 3.5 0.0
2.0625 3.5 0.0
2.13125 3.5 0.0
2.2 3.56430812579 0.0
2.2 3.6227083524 0.0
2.2 3.67574343203 0.0
2.2 3.72390623714 0.0
2.2 3.76764438299 0.0
2.2 3.80736436348 0.0
2.2 3.84343531161 0.0
2.2 3.87619247056 0.0
2.2 3.90594026646 0.0
2.2 3.93295517223 0.0
2.2 3.9574882542 0.0
2.2 3.97976750927 0.0
2.18000003888 4.0 0.0
2.15999995974 4.0 0.0
2.13999995594 4.0 0.0
2.12000003893 4.0 0.0
2.0999999813 4.0 0.0
2.07999993507 4.0 0.0
2.06000001965 4.0 0.0
2.04000002354 4.0 0.0
2.01999993997 4.0 0.0
1.99999999426 4.0 0.0
1.98000004623 4.0 0.0
1.95999996625 4.0 0.0
1.93999996787 4.0 0.0
1.92000005069 4.0 0.0
1.90000001292 4.0 0.0
1.87999994967 4.0 0.0
1.86000003245 4.0 0.0
1.84000003166 4.0 0.0
1.81999995194 4.0 0.0
1.80000002065 4.0 0.0
1.78000005962 4.0 0.0
1.75999997703 4.0 0.0
1.73999998149 4.0 0.0
1.72000006236 4.0 0.0
1.70000000651 4.0 0.0
1.67999995967 4.0 0.0
1.66000004242 4.0 0.0
1.64000004304 4.0 0.0
1.61999996152 4.0 0.0
1.6000000096 4.0 0.0
1.58000006667 4.0 0.0
1.55999998704 4.0 0.0
1.53999998381 4.0 0.0
1.52000006764 4.0 0.0
1.5000000299 4.0 0.0
1.47999996242 4.0 0.0
1.46000004337 4.0 0.0
1.4400000454 4.0 0.0
1.41999996386 4.0 0.0
1.40000002834 4.0 0.0
1.38000006734 4.0 0.0
1.35999998576 4.0 0.0
1.33999998537 4.0 0.0
1.32000006658 4.0 0.0
1.30000001585 4.0 0.0
1.27999996279 4.0 0.0
1.26000004759 4.0 0.0
1.24000004493 4.0 0.0
1.2199999616 4.0 0.0
1.20000000906 4.0 0.0
1.18000006792 4.0 0.0
1.15999998616 4.0 0.0
1.13999999119 4.0 0.0
1.12000007157 4.0 0.0
1.1 4.0 0.0
1.07999992843 4.0 0.0
1.06000000881 4.0 0.0
1.04000001384 4.0 0.0
1.01999993209 4.0 0.0
0.999999990948 4.0 0.0
0.98000003841 4.0 0.0
0.959999955072 4.0 0.0
0.939999952416 4.0 0.0
0.920000037214 4.0 0.0
0.899999984154 4.0 0.0
0.879999933427 4.0 0.0
0.860000014636 4.0 0.0
0.840000014246 4.0 0.0
0.819999932662 4.0 0.0
0.79999997166 4.0 0.0
0.780000036145 4.0 0.0
0.759999954604 4.0 0.0
0.73999995663 4.0 0.0
0.72000003758 4.0 0.0
0.699999970103 4.0 0.0
0.679999932361 4.0 0.0
0.660000016189 4.0 0.0
0.640000012962 4.0 0.0
0.61999993333 4.0 0.0
0.599999990406 4.0 0.0
0.58000003848 4.0 0.0
0.559999956964 4.0 0.0
0.539999957581 4.0 0.0
0.520000040329 4.0 0.0
0.499999993489 4.0 0.0
0.479999937647 4.0 0.0
0.460000018512 4.0 0.0
0.440000022972 4.0 0.0
0.419999940378 4.0 0.0
0.399999979352 4.0 0.0
0.380000048063 4.0 0.0
0.359999968347 4.0 0.0
0.339999967553 4.0 0.0
0.320000050328 4.0 0.0
0.299999987077 4.0 0.0
0.279999949312 4.0 0.0
0.260000032129 4.0 0.0
0.240000033752 4.0 0.0
0.219999953776 4.0 0.0
0.200000005737 4.0 0.0
0.180000060031 4.0 0.0
0.159999976465 4.0 0.0
0.139999980354 4.0 0.0
0.120000064926 4.0 0.0
0.100000018697 4.0 0.0
0.0799999610675 4.0 0.0
0.0600000440571 4.0 0.0
0.0400000402596 4.0 0.0
0.0199999611169 4.0 0.0
0.0 3.97976750927 0.0
0.0 3.9574882542 0.0
0.0 3.93295517223 0.0
0.0 3.90594026646 0.0
0.0 3.87619247056 0.0
0.0 3.84343531161 0.0
0.0 3.80736436348 0.0
0.0 3.76764438299 0.0
0.0 3.72390623714 0.0
0.0 3.67574343203 0.0
0.0 3.6227083524 0.0
0.0 3.56430812579 0.0
0.249757963562 3.75212589829 0.0
1.94999996706 3.74954522137 0.0
0.488710285893 3.75947702441 0.0
0.726520490699 3.7655965719 0.0
0.967283134849 3.7597072979 0.0
1.20619032017 3.75831098673 0.0
1.45842774915 3.76733088374 0.0
1.69012076678 3.7622332834 0.0
0.130754044069 3.86878249167 0.0
2.06924595593 3.86878249167 0.0
1.8299999918 3.84622455633 0.0
1.56816462369 3.85034872999 0.0
0.369913859351 3.84868157925 0.0
0.608733620231 3.84706187144 0.0
1.33069778866 3.84790908234 0.0
0.84323446252 3.84762979148 0.0
1.08873170817 3.84705870913 0.0
0.250539365135 3.87785524304 0.0
1.94967747948 3.87849609822 0.0
1.73218750075 3.8916046151 0.0
0.468661874066 3.89189322974 0.0
1.47574192429 3.89639134117 0.0
0.704258110321 3.8963912684 0.0
1.18331258449 3.8976320365 0.0
0.949999953744 3.89208018478 0.0
1.64795374468 3.91749779939 0.0
0.548928463645 3.91905583847 0.0
1.38619509199 3.91928594438 0.0
0.788926872841 3.91906062101 0.0
1.27071160784 3.91777932845 0.0
1.02999997296 3.91685174433 0.0
1.81733541416 3.69950870754 0.0
1.86999999106 3.91823503401 0.0
0.071252620538 3.93011431841 0.0
2.12874737946 3.93011431841 0.0
2.07400690796 3.74293885365 0.0
0.125993092043 3.74293885365 0.0
0.32995676804 3.92118147353 0.0
2.00999996712 3.92542383197 0.0
0.190000032884 3.92542383197 0.0
1.56698738743 3.72218882919 0.0
1.33000000474 3.72531695685 0.0
0.848014510843 3.71986098938 0.0
1.09024665585 3.72285801424 0.0
0.610276609989 3.72290563624 0.0
1.54999998543 3.92414142844 0.0
0.629999973146 3.92414137652 0.0
0.869999974031 3.92414141814 0.0
1.11000003579 3.92414141267 0.0
1.79030638642 3.92649353654 0.0
0.370434802927 3.72513294336 0.0
0.410903135411 3.92892991244 0.0
1.33000002597 3.93737911571 0.0
0.129927648482 3.94112154503 0.0
2.07007235152 3.94112154503 0.0
1.93000000928 3.93875927586 0.0
0.26999999072 3.93875927586 0.0
1.40966706061 3.83880068991 0.0
0.770332962441 3.83880062149 0.0
1.24904900022 3.84293377683 0.0
1.01033287484 3.83880060723 0.0
0.530342681434 3.83880307444 0.0
0.189895273961 3.63486992823 0.0
2.00989835291 3.62845703161 0.0
0.998888153878 3.61665036233 0.0
1.47894673873 3.61675180774 0.0
0.51733910646 3.62937665489 0.0
0.705112628302 3.618743723 0.0
1.66672137035 3.63168728155 0.0
1.18508242495 3.61871739348 0.0
1.71000003443 3.94408608591 0.0
0.489999965568 3.94463856597 0.0
1.44983363802 3.94422347836 0.0
0.729999997105 3.94465012565 0.0
1.21016639734 3.94422345842 0.0
0.928621800545 3.94440037102 0.0
2.00626203014 3.81543543551 0.0
0.193627962274 3.81528928332 0.0
1.66628164144 3.83559795895 0.0
1.75661718781 3.81065958113 0.0
1.61143779865 3.94859227761 0.0
0.991673865748 3.95161238438 0.0
0.0604617941233 3.86281264864 0.0
2.13953820588 3.86281264865 0.0
0.300965570716 3.8114148258 0.0
0.2970894797 3.66361086085 0.0
0.398842167194 3.60449226805 0.0
1.51000004877 3.95218393067 0.0
1.90135619383 3.81213273629 0.0
0.669405272842 3.95495208979 0.0
1.07142780558 3.94866325309 0.0
0.592085094025 3.94901139323 0.0
0.831051660929 3.94633985879 0.0
1.14940528892 3.9549521224 0.0
0.44409344258 3.82719938178 0.0
1.49646539728 3.82376850413 0.0
0.683434082651 3.82631713605 0.0
0.92337834777 3.8234861632 0.0
1.16343437877 3.82631615351 0.0
1.90749084149 3.65350700271 0.0
1.8278758005 3.95083911942 0.0
0.37243073327 3.95235211027 0.0
1.29345662549 3.60569899261 0.0
0.813407949226 3.60572380122 0.0
1.29317153636 3.96216077293 0.0
1.367704599 3.96055764734 0.0
1.97071235041 3.96038324024 0.0
0.22928764959 3.96038324024 0.0
2.10610581798 3.66047411138 0.0
0.0938941820177 3.66047411138 0.0
1.67000000105 3.95862953468 0.0
1.74869816704 3.96079301687 0.0
0.531976761939 3.96138655466 0.0
0.451361042387 3.96112774725 0.0
0.771976832233 3.96138887156 0.0
1.88843481911 3.95881554986 0.0
1.61277513709 3.78538823015 0.0
2.13311214501 3.79435403671 0.0
0.0668878549946 3.79435403671 0.0
1.76678797151 3.60286552601 0.0
0.311702446283 3.9611157379 0.0
1.02877762737 3.96159282031 0.0
1.40830122607 3.96143175203 0.0
1.25214210333 3.957355862 0.0
1.59476493393 3.9048774062 0.0
1.56950979124 3.96148017208 0.0
0.890017020275 3.96125792969 0.0
2.03089110475 3.96040268709 0.0
0.169108895255 3.96040268709 0.0
0.939722125942 3.68539157065 0.0
1.41686981874 3.69192854313 0.0
0.0426348006718 3.96101756902 0.0
2.15736519933 3.96101756902 0.0
1.36077308019 3.79177204211 0.0
0.817982383499 3.78962669257 0.0
1.05834720932 3.78780184893 0.0
0.578349529346 3.78781530011 0.0
1.77992711518 3.87652731382 0.0
0.417982153133 3.87594990465 0.0
1.84363633012 3.77741329286 0.0
1.52244994479 3.87704541475 0.0
0.657426528912 3.87734838249 0.0
1.13742651778 3.87734834025 0.0
0.898116026439 3.8800466833 0.0
1.56984259435 3.64465823131 0.0
1.08983016076 3.6446495206 0.0
0.609942357805 3.64483976081 0.0
1.29451769374 3.79627773068 0.0
0.0893439668432 3.96574839433 0.0
2.11065603316 3.96574839433 0.0
2.01422398896 3.86980625824 0.0
0.185776011038 3.86980625824 0.0
0.305957237756 3.87340573745 0.0
1.72977480551 3.68665973332 0.0
1.25418096296 3.69351129461 0.0
0.629999973146 3.96272981435 0.0
1.11000003579 3.96272983221 0.0
0.772975283819 3.69297597031 0.0
1.89089074715 3.86951346173 0.0
0.445448577516 3.69456159386 0.0
1.82621986864 3.89678318705 0.0
2.07135424223 3.81165410377 0.0
0.128645757768 3.81165410377 0.0
0.373320289473 3.89968791662 0.0
1.79000004014 3.96541718891 0.0
0.383302070088 3.78976392323 0.0
0.409457623385 3.96502881851 0.0
1.55531527123 3.78787141386 0.0
1.34861332978 3.89383287415 0.0
0.593245985735 3.89483466551 0.0
0.833245353375 3.89479604398 0.0
1.0732444554 3.8948349405 0.0
0.911896623122 3.59194725763 0.0
0.187580554011 3.70699710313 0.0
2.01241944599 3.70699710313 0.0
1.39201907571 3.59233063354 0.0
2.09635520798 3.90516200201 0.0
0.103644792024 3.90516200201 0.0
1.89086147526 3.72621461413 0.0
1.02102684616 3.70044819701 0.0
1.49813234221 3.70194667869 0.0
0.53965669049 3.70593418829 0.0
1.63719578665 3.69772473547 0.0
0.685447658936 3.70127585046 0.0
1.16541741817 3.70128744764 0.0
0.901649266036 3.76287226775 0.0
0.992351690321 3.90662993531 0.0
1.69131894868 3.90657323657 0.0
1.9699561555 3.91599371502 0.0
0.230043844497 3.91599371502 0.0
1.61980840676 3.85005402918 0.0
2.04685187594 3.90639759008 0.0
0.153148124058 3.90639759008 0.0
0.512139828486 3.90538520837 0.0
1.43057458921 3.90702644399 0.0
0.749149996349 3.90689574876 0.0
[...]
POINT_DATA 1163
VECTORS Displacement float
0.0 0.0 0
0.0 0.0 0
0.0110778288369 -0.00154990052929 0
-0.00984107089219 -0.00177420497211 0
0.0 0.0 0
0.0 0.0 0
0.0 0.0 0
0.0 0.0 0
0.0 0.0 0
0.0 0.0 0
0.0 0.0 0
0.0 0.0 0
0.0 0.0 0
0.0 0.0 0
0.0 0.0 0
0.0 0.0 0
0.0 0.0 0
0.0 0.0 0
0.0 0.0 0
0.0 0.0 0
0.0 0.0 0
0.0 0.0 0
0.0 0.0 0
0.0 0.0 0
0.0 0.0 0
0.0 0.0 0
0.0 0.0 0
0.0 0.0 0
0.0 0.0 0
0.0 0.0 0
0.0 0.0 0
0.0 0.0 0
0.0 0.0 0
0.0 0.0 0
0.0 0.0 0
0.00365432441917 -0.00269075206323 0
0.00645545822527 -0.00345128843106 0
0.00857726906498 -0.00346490125768 0
0.00989304055522 -0.00313085150232 0
0.0106688081274 -0.00271909263916 0
0.0110699556662 -0.00231786018955 0
0.0111999936679 -0.0020100799115 0
0.0112331705375 -0.00178673142602 0
0.0111887941593 -0.00164506708235 0
0.0111340703228 -0.00158114493173 0
0.011095567239 -0.00155422788003 0
0.011079289397 -0.00154881252933 0
0.0110789338492 -0.00154909757684 0
0.0110774071798 -0.00153428823796 0
0.0110625966261 -0.00150503868948 0
0.0110272892784 -0.00146415633613 0
0.0109665328979 -0.00141935734339 0
0.0108772488621 -0.00138434589956 0
0.0107529773692 -0.00135723212756 0
0.0105993233735 -0.00136438017691 0
0.0104066837498 -0.00139755351533 0
0.01018910674 -0.00148175027767 0
0.00992405949708 -0.00161173360618 0
0.00962655292494 -0.00181321603281 0
0.00930438341621 -0.00209246215085 0
0.00893499642827 -0.00244939565782 0
0.00854706040306 -0.00290875828382 0
0.00810452162936 -0.00346843687163 0
0.00763440296096 -0.00416025210605 0
0.00712726759894 -0.00497652203995 0
0.00659148093574 -0.00596088970009 0
0.00599003154537 -0.00711696651687 0
0.00537840683859 -0.00847614177109 0
0.00477018508786 -0.010054606325 0
0.00409309559288 -0.0118657319128 0
0.00341646581485 -0.01396999625 0
0.00267522587985 -0.0164153990229 0
0.00200852324661 -0.0192201715527 0
0.00129542934902 -0.0224591524451 0
0.000584701754922 -0.0262355611082 0
-3.19019809826e-05 -0.0306207713895 0
-0.000367440664163 -0.0357401249809 0
-0.000411158741663 -0.0417845861629 0
-1.7628055588e-05 -0.0494506826212 0
0.00169000936791 -0.0592815910784 0
0.00347421828748 -0.0684159002695 0
0.00510673879096 -0.077192117188 0
0.00659202691205 -0.0853510497461 0
0.0078572072448 -0.093084820686 0
0.00892733715782 -0.100348959205 0
0.00965814239033 -0.107204692791 0
0.0101744928379 -0.113574029743 0
0.0104251056334 -0.119521277183 0
0.0104529008625 -0.125026350088 0
0.010211364526 -0.130057658484 0
0.00978887314198 -0.134585810701 0
0.00914662522466 -0.138624936493 0
0.00829482489411 -0.142161187072 0
0.00728182356849 -0.145169680254 0
0.00613161113613 -0.147649587381 0
0.00484609346073 -0.149592046529 0
0.00343542750362 -0.150988153024 0
0.00192880365737 -0.151823163754 0
0.000264874475304 -0.152046094448 0
-0.00131953009178 -0.151831301385 0
-0.0028100043007 -0.151016959352 0
-0.00418603134037 -0.14964206185 0
-0.00545767841757 -0.147717454199 0
-0.0065862063935 -0.145255754717 0
-0.0075624368908 -0.142267734225 0
-0.00837127452158 -0.138760112618 0
-0.00902959066353 -0.134737163093 0
-0.00946696576333 -0.130223107155 0
-0.00965459876237 -0.125226174682 0
-0.00959973782648 -0.119762351046 0
-0.00928467776634 -0.113825730143 0
-0.00877414891796 -0.107472671703 0
-0.00793732689107 -0.100678947076 0
-0.0069488727487 -0.0934247190573 0
-0.00563277933114 -0.0857384462989 0
-0.00408176552255 -0.0776374328758 0
-0.00234288011638 -0.0689651778929 0
-0.000443080950832 -0.0599235140851 0
0.00162723620724 -0.0503968887175 0
0.00323631563131 -0.0398856404043 0
0.00230922119259 -0.0346442069565 0
0.00167284431009 -0.0298132083432 0
0.000992012517165 -0.0255880929287 0
0.000273077229253 -0.0219017194881 0
-0.000445523701977 -0.0186878550665 0
-0.00111039520583 -0.0158892603815 0
-0.00182407612549 -0.0134534597085 0
-0.00248698492317 -0.0113332745812 0
-0.00312798441746 -0.00950928188034 0
-0.00371803296833 -0.00792163883764 0
-0.00429973215652 -0.00653364438236 0
-0.00482863170397 -0.00533214282983 0
-0.00535625094612 -0.00431046581917 0
-0.00582397238015 -0.00343788843598 0
-0.0062674628124 -0.00271243128697 0
-0.00665903073767 -0.00208921681045 0
-0.00703903167148 -0.00157724227449 0
-0.00739652285341 -0.00116341562493 0
-0.00770897360983 -0.00082869086221 0
-0.00800007659485 -0.000577205206329 0
-0.00826240735267 -0.000385211415492 0
-0.00850558797061 -0.000256772485539 0
-0.00871690285395 -0.000176054005251 0
-0.00891440853056 -0.000146682016253 0
-0.00908517983969 -0.000154039538315 0
-0.00924086843367 -0.000200222747967 0
-0.00937882475107 -0.000281125028474 0
-0.00949164562776 -0.000384247514808 0
-0.00959128583699 -0.000512878612179 0
-0.00967089347924 -0.000654325476181 0
-0.00973540805604 -0.000813381232174 0
-0.00978199778478 -0.000976668229388 0
-0.00981393269694 -0.00114534359702 0
-0.00983268414264 -0.00131238695414 0
-0.00984067413467 -0.0014736660037 0
-0.00984162484683 -0.00162760640999 0
-0.00969401840856 -0.00177366132258 0
-0.00953974136414 -0.00177672076741 0
-0.00938034956113 -0.00179119589561 0
-0.00921036697639 -0.00182532293087 0
-0.00901327165681 -0.00190023797328 0
-0.00874964942049 -0.00201707597605 0
-0.00840615909246 -0.00217508398198 0
-0.00788187781451 -0.00237639562827 0
-0.00711849010808 -0.00256718671998 0
-0.00601714096431 -0.00268133118315 0
-0.0044328924662 -0.00255384200374 0
-0.00246335302329 -0.00192045778962 0
-0.00884423119847 -0.000351441870656 0
0.0122539152196 -0.00186164543565 0
-0.0138508714884 -0.00456306537985 0
-0.0209295809682 -0.0265655826976 0
-0.0147324959921 -0.0598414612854 0
0.00425863504942 -0.0693024727809 0
0.0207011880106 -0.0476758594087 0
0.0193385777586 -0.0146031118535 0
-0.00906688444484 -0.000699644952428 0
0.0114220962172 -0.0013025464356 0
0.0139459252449 -0.00517032587026 0
0.0212202584485 -0.0385974588178 0
-0.0104916871209 -0.000917116735726 0
-0.0158075342802 -0.0138888702488 0
0.0142527834835 -0.0865883277844 0
-0.0203160664618 -0.0594300290398 0
-0.00583855527002 -0.0962090019308 0
-0.00936567608484 -5.34795099526e-05 0
0.0117615847002 -0.00171966726441 0
0.0138764154595 -0.0122930593235 0
-0.0105346442517 -0.00356151652231 0
0.0192111467698 -0.0684722345778 0
-0.0159012092699 -0.0302009449741 0
0.00236117403789 -0.114986434749 0
-0.0149630202027 -0.092725613202 0
0.0137872838444 -0.024361797097 0
-0.00983506765603 -0.00829001575875 0
0.0154691294688 -0.0964411077221 0
-0.0163307567081 -0.0555298202411 0
0.00914653800823 -0.115817551929 0
-0.00969533827152 -0.113238797424 0
0.0143631998999 -0.00499424060382 0
0.01100785286 -0.0034938751631 0
-0.00936610027842 -0.00121469065053 0
0.0111461847497 -0.00147603716874 0
0.0106978727114 -0.00143936768587 0
-0.00771660843201 -0.000840002317216 0
-0.00916191493421 -0.000305544315959 0
0.0109882358322 -0.00127086013889 0
-0.00925680088211 -0.000247328608742 0
0.0208169900824 -0.0257753991925 0
0.0132194614154 -0.052882981567 0
-0.0191112232119 -0.0372222832879 0
-0.00526905564911 -0.057975562779 0
-0.017328282021 -0.011346777317 0
0.016396220946 -0.0497436703876 0
-0.0105211111753 -0.0169437858499 0
-0.0158490928161 -0.0814820132826 0
-0.00370786251934 -0.123181281649 0
0.0107651684326 -0.00741019565739 0
-0.0105064826066 -0.00135808901481 0
-0.00894897683841 -0.00161800791962 0
0.0122943789605 -0.113185831305 0
-0.00937349009874 -0.000693009478572 0
0.0110031459239 -0.00129042096445 0
0.01050023157 -0.00202508191844 0
-0.00908936523744 -3.20603902218e-05 0
0.0189273627905 -0.071304635695 0
-0.0209691058925 -0.0414925089664 0
0.00809030154681 -0.0935689244727 0
-0.0120698902703 -0.0866262658349 0
-0.0137437134661 -0.00702170159382 0
-0.00536807423652 -0.000507111233566 0
0.00759973439793 -0.00113711139506 0
-0.00815500873956 -0.0261493106702 0
0.013460098846 -0.0186995596705 0
-0.0109419829607 -0.00404467237598 0
-0.0139191301733 -0.0113511691747 0
0.0143764177539 -0.00958426716113 0
0.00153733155049 -0.0294522235434 0
0.00962236588184 -0.0148300673105 0
-0.00809955819294 -0.00453176247018 0
0.0150623311838 -0.0854435544367 0
-0.0109199863408 -0.0377982845357 0
0.00433810963332 -0.130142677296 0
-0.013349557097 -0.10204329496 0
0.011867578644 -0.00134632167425 0
-0.00895330760934 -0.000317104943954 0
0.0190364820192 -0.0198081685585 0
0.0167857299281 -0.00966621160728 0
0.0107721848639 -0.0325571916983 0
-0.0109088241379 -0.11799781908 0
-0.00896041893991 -0.00137639631537 0
0.0113229986597 -0.00163949547719 0
-0.00987946358247 -0.000339655601501 0
-0.00764698221477 -0.00072066153486 0
-0.00708602318123 -0.00151291074976 0
0.013654405484 -0.0666675337241 0
0.0132501712854 -0.00271387902082 0
-0.00721716030143 -0.0234012229797 0
-0.00641604629449 -0.128740389162 0
-0.00751273154048 -0.0122915838284 0
-0.0137078900365 -0.0735996313266 0
-0.000486354980002 -0.135334185156 0
-0.0120528941741 -0.00278275564224 0
0.021997647019 -0.0509171390861 0
-0.0193100052458 -0.0237489572924 0
-0.0176816419004 -0.0701340914545 0
0.000656078907182 -0.091430041848 0
0.0104181741191 -0.00222439353489 0
0.00940648959659 -0.00526749858726 0
-0.00847222492119 -0.000853817006947 0
0.00670468534797 -0.0242557231453 0
-0.0127878829258 -0.0154356312921 0
0.00971835624184 -0.127349284875 0
0.0127465081405 -0.11196721685 0
0.0103231980868 -0.00154849528518 0
-0.00915702259415 -9.73298039679e-05 0
0.00816490114704 -0.00150547439428 0
-0.00564879128121 -0.00102658085141 0
0.00803331231659 -0.0205285456327 0
0.00801909027932 -0.0107457003983 0
-0.00674270278352 -0.0070724762454 0
-0.00757693147622 -0.00289846349947 0
-0.00990891914979 -0.0535985434507 0
0.00960802547277 -0.0029921625075 0
0.0215589374148 -0.0253429978774 0
0.0111379070293 -0.00179240106161 0
-0.00833849013119 -0.00140211555169 0
0.0104478450513 -0.00440354818293 0
-0.00871423795466 -0.000205246967706 0
-0.00886172808996 -0.127596067556 0
0.0133882016916 -0.101646390839 0
0.00731158706094 -0.131262449171 0
0.0170306944887 -0.0357416845465 0
0.0100906751568 -0.04523829399 0
-0.0124814434537 -0.0955442231489 0
0.0107263890657 -0.00127578281774 0
-0.00936979595193 -0.000400772480133 0
-0.0142443217975 -0.0391868694846 0
0.0166179323785 -0.0373719335129 0
-0.00956044045996 -0.00145298244408 0
0.0110857407832 -0.00153181141695 0
0.0163200109778 -0.0671646876328 0
-0.0213269475338 -0.0445406830539 0
-0.00837167711654 -0.0757490799495 0
-0.0165427275992 -0.0102589151557 0
0.0137898406904 -0.00813860299488 0
-0.0105189473201 -0.00185888433663 0
0.0147184435708 -0.00451767050133 0
0.0205487592788 -0.0526535518521 0
-0.0156250360916 -0.0209387388304 0
-0.00159026395134 -0.108083085134 0
-0.0176692894584 -0.0788165385416 0
0.0163952234801 -0.0167622446872 0
-0.00424655148168 -0.035945250013 0
-0.0140317192439 -0.00815782423503 0
0.01170158189 -0.0756938289688 0
-0.00955656888807 -0.00105228672899 0
0.0110121110713 -0.00141629074882 0
0.011575928401 -0.00126132927122 0
-0.00917226926063 -0.000290842462144 0
-0.00965052481204 -0.000179102594649 0
0.0163470519253 -0.00887643192373 0
0.00720740200303 -0.0487492037656 0
-0.00587316702681 -0.0170103644605 0
-0.00355571950532 -0.136759638435 0
-0.0190593938875 -0.0245679747262 0
0.0124139873687 -0.00287615524436 0
-0.0117746147635 -0.00286227153206 0
0.012125352157 -0.00531261200491 0
0.0114448280196 -0.00136848951642 0
-0.00865233531676 -0.000760667328798 0
-0.00961753366132 -0.000859717678639 0
0.00812156788494 -0.00752349852567 0
-0.0111771612253 -0.00136989859684 0
-0.0078544609824 -0.00163935802669 0
0.0222883326046 -0.0347724569723 0
0.01458571235 -0.0970029564296 0
-0.0123488364581 -0.0123808557204 0
-0.0184130942245 -0.065398669788 0
-0.00681817803627 -0.110747177743 0
-0.00959835122333 -0.0174980532159 0
-0.00737498258559 -0.000506391886467 0
0.0104674597125 -0.00136278729946 0
0.00943993029367 -0.0181105231445 0
0.0112348990933 -0.00136801903462 0
-0.00923097746856 -0.000923666629422 0
0.0131049483652 -0.00291505986704 0
-0.00999732177642 -0.0485006233051 0
0.0194962417488 -0.0310338403842 0
-0.0147186129307 -0.00646459867285 0
0.019013376445 -0.016255016514 0
-0.0185927548908 -0.016727147443 0
0.000690635022362 -0.0527361773487 0
-0.0184253620387 -0.0526896279057 0
-0.012243230036 -0.104458643256 0
0.0136425822897 -0.0172227338595 0
0.011068183517 -0.00149593845313 0
-0.00923783092855 -7.13417058818e-05 0
0.0199368977708 -0.0279900118188 0
0.0112130262466 -0.00123958654478 0
-0.00923441444195 -0.000501988684542 0
-0.0103503490625 -0.00576539587077 0
0.0175814249354 -0.0827210487676 0
-0.016539727603 -0.0421170280789 0
0.00597017143924 -0.117370434713 0
0.0100909694665 -0.00197878711266 0
-0.00723095881901 -0.00149722841889 0
-0.0114360873627 -0.115150145021 0
-0.00919413645353 -0.00151212431104 0
0.0112347958801 -0.00162289456894 0
0.0122306166695 -0.080646579347 0
-0.0057335587815 -0.0302085413985 0
0.00207700517111 -0.139343491553 0
-0.00936528722246 -0.000151824424433 0
-0.00976807985845 -0.000640917684116 0
0.0108110074084 -0.0991436859107 0
0.0123590080734 -0.00173154594098 0
0.011336098254 -0.12175182235 0
0.0168229229084 -0.00829441500362 0
-0.00329457434292 -0.0756560665545 0
-0.0186624249403 -0.0158015340623 0
0.0165518721473 -0.0726820074935 0
-0.0116897261167 -0.0292323481132 0
0.00180576366912 -0.126449447807 0
0.0069377892974 -0.0264969120617 0
-0.0200168717432 -0.0555988184176 0
0.00747505107091 -0.00216069309579 0
0.00986947969094 -0.00209619519224 0
-0.00894342759482 -6.68992984517e-05 0
-0.00601060716586 -0.00925685133086 0
-0.00974118109932 -0.0645249912158 0
0.0105775091488 -0.0560424641471 0
-0.0117758388111 -0.0873570859141 0
0.00894952486828 -0.00386047757141 0
0.0108825350756 -0.00131270865765 0
-0.0094887294681 -0.000702329995206 0
-0.00843162741776 -0.000435618538361 0
0.0170281401941 -0.0133413579486 0
0.0104404557969 -0.00138480422773 0
-0.00927404174648 -0.000216802484602 0
-0.0124118342299 -0.00426899784662 0
0.0207416222458 -0.0631057025833 0
-0.0198285117321 -0.0317874458472 0
0.00378218333245 -0.0956276214382 0
-0.0152455427507 -0.0821226054697 0
0.00622261059389 -0.00132225997502 0
-0.00386816913487 -0.000514064063187 0
0.0117102420979 -0.0105058995575 0
-0.0129146572639 -0.106002395548 0
-0.00936600330929 -0.00277109553987 0
0.0117257466807 -0.107756925982 0
-0.0198762443433 -0.0520525040767 0
-0.00976094769463 -0.0996478881866 0
-0.0130391643378 -0.00903944078038 0
-0.00294854718268 -0.000485880807989 0
0.00443528500853 -0.000816112696268 0
-0.00468394785546 -0.000808526991329 0
0.011319446547 -0.00253532023878 0
-0.00932863191282 -0.000100760435645 0
0.021763468773 -0.0402290481106 0
0.0170056175648 -0.0844539980551 0
-0.0158031641952 -0.0888726378946 0
-0.0121901356687 -0.00255596392577 0
0.0176503058649 -0.059254240915 0
-0.0121904770346 -0.0225314506463 0
-0.000874062854122 -0.121850036715 0
0.0114024924082 -0.00147874236029 0
-0.00881796591758 -0.00101388788627 0
0.00684139834604 -0.0149576015614 0
0.014411145937 -0.0421469082885 0
0.0114387280849 -0.00133782295618 0
-0.00837280940567 -0.000505071756378 0
-0.00676258004145 -0.00462687171898 0
0.0127692301671 -0.0888105733802 0
-0.00668114144137 -0.0366568020809 0
-0.0117681642839 -0.109469231212 0
0.00395730531008 -0.138190653693 0
0.00900884911419 -0.0627734430979 0
0.0171198990163 -0.0209785713165 0
0.0112244869865 -0.00192039502007 0
-0.00859040136437 -0.00166625676483 0
0.016921802977 -0.0484391674308 0
0.00825083002384 -0.00579117309712 0
0.015624982215 -0.00653296443904 0
-0.000773798782617 -0.0146545725943 0
0.0114877521535 -0.0360782750722 0
-0.00798394688894 -0.00482048812947 0
-0.0161148958213 -0.0274801015335 0
-0.00746075694276 -0.000509808821384 0
-0.0208489131723 -0.0323583819943 0
-0.0104313028529 -0.000659390144273 0
0.0195324622537 -0.0417066650741 0
-0.00631165109227 -0.00187379614072 0
-0.0031789595351 -0.00112931660253 0
0.00472420960986 -0.00156056715662 0
0.011053147891 -0.00148522034687 0
-0.00960236744049 -0.00126891513139 0
0.0123706970758 -0.00385540747707 0
0.00301313499097 -0.0179205278731 0
-0.00994582516316 -0.00894839928429 0
-0.00936564760726 -0.0015652272626 0
0.0111534685472 -0.00158421773549 0
-0.00789400432784 -0.00335168566982 0
0.0107931721393 -0.00186270988951 0
-0.00898588086751 -0.00131867339691 0
-0.00449472752575 -0.017698546304 0
0.0101811865109 -0.0108703438973 0
-0.0149007093111 -0.00657186596743 0
-0.00974792335894 -0.00039172277596 0
0.0197855469564 -0.0562883545713 0
-0.0123513199103 -0.0708990057763 0
0.00566138330628 -0.0333615100879 0
-0.0101088644416 -0.125234502958 0
0.0140908777132 -0.103606656281 0
0.0116214874521 -0.00126252601445 0
-0.00898877415804 -0.000477897317151 0
0.00837230616917 -0.00423450611428 0
0.00801141301605 -0.0764415259465 0
-0.00745610332542 -0.135807056907 0
-0.0215735588989 -0.0337313490305 0
-0.0211532420446 -0.0497792137648 0
-0.00944206172624 -0.0921890796895 0
-0.0145018037654 -0.00954598670622 0
0.0169906728139 -0.07780957427 0
0.0119201342046 -0.110783004203 0
0.00810778188998 -0.136099607619 0
0.0114890432828 -0.00334785842964 0
0.0110924664233 -0.00137001031228 0
-0.00937393110317 -0.000948064148799 0
-0.00487831866744 -0.0139538201436 0
-0.00437962863381 -0.0206771546647 0
-0.00518245038055 -0.137620200421 0
-0.00170647017125 -0.141520202862 0
-0.00683503634588 -0.000777390121493 0
0.00972652337231 -0.00136435814671 0
0.018828730195 -0.0151506467718 0
0.0112333126819 -0.00149768482826 0
-0.00922381583666 -0.00121630891 0
0.0134094413778 -0.00339573490757 0
0.00862078097121 -0.0706591843408 0
-0.00809429599231 -0.0791880320452 0
-0.0200833399044 -0.0213011614019 0
0.000513192833545 -0.0762004849515 0
0.00798129128727 -0.00611553922004 0
0.00851609038212 -0.101733179317 0
-0.00788025596485 -0.0011689562276 0
-0.00964155242475 -0.00157624217644 0
0.011080886886 -0.00154743691094 0
-0.0181171196373 -0.0735288056614 0
-0.00419068598642 -0.111407434077 0
-0.0135883618985 -0.016345333569 0
-0.00927307902163 -0.000144379500638 0
0.0136465620698 -0.00305454670747 0
0.0117609467074 -0.00142082174615 0
0.0109934638625 -0.00124405760275 0
-0.00931501583396 -0.000487210885137 0
0.0106593197546 -0.00448184291963 0
0.0069174803212 -0.00900400736648 0
-0.00722090674359 -0.00224220935137 0
0.0203245443774 -0.0196738352 0
0.0219133588748 -0.0453986139761 0
-0.0175399365655 -0.018317423949 0
-0.0191969255044 -0.0661706011583 0
-0.00274994429801 -0.0942763442334 0
-0.0111699621346 -0.0016894397503 0
-0.0132142949412 -0.0925269593923 0
-0.0133363496576 -0.00424689161327 0
0.0192627695239 -0.0741411011649 0
-0.012134962617 -0.00567556198118 0
-0.0194427115397 -0.0397777663261 0
0.0113115013336 -0.00132407891936 0
0.021164884689 -0.0545354623347 0
-0.00924610299632 -0.000170926442916 0
-0.020861756414 -0.0285833472405 0
-0.0155726004803 -0.0703262240275 0
0.00390682691021 -0.0831394305011 0
0.0144524982147 -0.0303493858678 0
0.0172255870015 -0.0269403041025 0
-0.00966211742954 -0.0105589725185 0
-0.0161114634119 -0.0647781181973 0
-0.0075987732166 -0.11810697025 0
0.0114066178683 -0.121399086971 0
0.0101148826938 -0.129671981222 0
0.0209914655489 -0.0590255301426 0
-0.0178121537549 -0.0264519817715 0
0.00118872454935 -0.10432963662 0
-0.0166262745066 -0.0823209385229 0
0.00979335862051 -0.00185321107696 0
-0.00901358193965 -8.96565183524e-05 0
-0.0089971790363 -0.000582434187923 0
0.0203977841759 -0.0185139316313 0
0.015552697919 -0.0912757247594 0
0.00642325037748 -0.125354261882 0
0.0152326454934 -0.0106804653815 0
0.0092857995073 -0.00252426451745 0
-0.00462066140648 -0.0253218991307 0
0.000303273554347 -0.141266054309 0
0.0122015759227 -0.00156587734791 0
-0.00901712112961 -0.000253997702101 0
-0.0100556107861 -0.0622341308846 0
-0.00901837443521 -0.00160380710521 0
0.0112863460039 -0.00172412842378 0
-0.0100653365483 -0.000472797036856 0
-0.0159537951426 -0.00813076376728 0
-0.00872876116983 -0.000140484446961 0
-0.0113170475517 -0.00293479220627 0
0.0111985812676 -0.00177716549305 0
-0.00926481912968 -1.97049853261e-05 0
0.0155580554595 -0.0170693245384 0
-0.0028582606773 -0.000361357103733 0
0.00434689943995 -0.000738943069932 0
-0.00955485873315 -0.000103037308591 0