# vtk DataFile Version 2.0
Generated with Solid Solver
ASCII
DATASET UNSTRUCTURED_GRID
POINTS 1163 float 
0.0 3.5 0.0
2.2 3.5 0.0
2.2 4.0 0.0
0.0 4.0 0.0
0.0687499999999 3.5 0.0
0.1375 3.5 0.0
0.20625 3.5 0.0
0.275 3.5 0.0
0.343749999999 3.5 0.0
0.412499999999 3.5 0.0
0.481249999999 3.5 0.0
0.549999999999 3.5 0.0
0.618749999998 3.5 0.0
0.687499999998 3.5 0.0
0.756249999998 3.5 0.0
0.824999999998 3.5 0.0
0.893749999998 3.5 0.0
0.962499999997 3.5 0.0
1.03125 3.5 0.0
1.1 3.5 0.0
1.16875 3.5 0.0
1.2375 3.5 0.0
1.30625 3.5 0.0
1.375 3.5 0.0
1.44375 3.5 0.0
1.5125 3.5 0.0
1.58125 3.5 0.0
1.65 3.5 0.0
1.71875 3.5 0.0
1.7875 3.5 0.0
1.85625 3.5 0.0
1.925 3.5 0.0
1.99375 3.5 0.0
2.0625 3.5 0.0
2.13125 3.5 0.0
2.2 3.56430812579 0.0
2.2 3.6227083524 0.0
2.2 3.67574343203 0.0
2.2 3.72390623714 0.0
2.2 3.76764438299 0.0
2.2 3.80736436348 0.0
2.2 3.84343531161 0.0
2.2 3.87619247056 0.0
2.2 3.90594026646 0.0
2.2 3.93295517223 0.0
2.2 3.9574882542 0.0
2.2 3.97976750927 0.0
2.18000003888 4.0 0.0
2.15999995974 4.0 0.0
2.13999995594 4.0 0.0
2.12000003893 4.0 0.0
2.0999999813 4.0 0.0
2.07999993507 4.0 0.0
2.06000001965 4.0 0.0
2.04000002354 4.0 0.0
2.01999993997 4.0 0.0
1.99999999426 4.0 0.0
1.98000004623 4.0 0.0
1.95999996625 4.0 0.0
1.93999996787 4.0 0.0
1.92000005069 4.0 0.0
1.90000001292 4.0 0.0
1.87999994967 4.0 0.0
1.86000003245 4.0 0.0
1.84000003166 4.0 0.0
1.81999995194 4.0 0.0
1.80000002065 4.0 0.0
1.78000005962 4.0 0.0
1.75999997703 4.0 0.0
1.73999998149 4.0 0.0
1.72000006236 4.0 0.0
1.70000000651 4.0 0.0
1.67999995967 4.0 0.0
1.66000004242 4.0 0.0
1.64000004304 4.0 0.0
1.61999996152 4.0 0.0
1.6000000096 4.0 0.0
1.58000006667 4.0 0.0
1.55999998704 4.0 0.0
1.53999998381 4.0 0.0
1.52000006764 4.0 0.0
1.5000000299 4.0 0.0
1.47999996242 4.0 0.0
1.46000004337 4.0 0.0
1.4400000454 4.0 0.0
1.41999996386 4.0 0.0
1.40000002834 4.0 0.0
1.38000006734 4.0 0.0
1.35999998576 4.0 0.0
1.33999998537 4.0 0.0
1.32000006658 4.0 0.0
1.30000001585 4.0 0.0
1.27999996279 4.0 0.0
1.26000004759 4.0 0.0
1.24000004493 4.0 0.0
1.2199999616 4.0 0.0
1.20000000906 4.0 0.0
1.18000006792 4.0 0.0
1.15999998616 4.0 0.0
1.13999999119 4.0 0.0
1.12000007157 4.0 0.0
1.1 4.0 0.0
1.07999992843 4.0 0.0
1.06000000881 4.0 0.0
1.04000001384 4.0 0.0
1.01999993209 4.0 0.0
0.999999990948 4.0 0.0
0.98000003841 4.0 0.0
0.959999955072 4.0 0.0
0.939999952416 4.0 0.0
0.920000037214 4.0 0.0
0.899999984154 4.0 0.0
0.879999933427 4.0 0.0
0.860000014636 4.0 0.0
0.840000014246 4.0 0.0
0.819999932662 4.0 0.0
0.79999997166 4.0 0.0
0.780000036145 4.0 0.0
0.759999954604 4.0 0.0
0.73999995663 4.0 0.0
0.72000003758 4.0 0.0
0.699999970103 4.0 0.0
0.679999932361 4.0 0.0
0.660000016189 4.0 0.0
0.640000012962 4.0 0.0
0.61999993333 4.0 0.0
0.599999990406 4.0 0.0
0.58000003848 4.0 0.0
0.559999956964 4.0 0.0
0.539999957581 4.0 0.0
0.520000040329 4.0 0.0
0.499999993489 4.0 0.0
0.479999937647 4.0 0.0
0.460000018512 4.0 0.0
0.440000022972 4.0 0.0
0.419999940378 4.0 0.0
0.399999979352 4.0 0.0
0.380000048063 4.0 0.0
0.359999968347 4.0 0.0
0.339999967553 4.0 0.0
0.320000050328 4.0 0.0
0.299999987077 4.0 0.0
0.279999949312 4.0 0.0
0.260000032129 4.0 0.0
0.240000033752 4.0 0.0
0.219999953776 4.0 0.0
0.200000005737 4.0 0.0
0.180000060031 4.0 0.0
0.159999976465 4.0 0.0
0.139999980354 4.0 0.0
0.120000064926 4.0 0.0
0.100000018697 4.0 0.0
0.0799999610675 4.0 0.0
0.0600000440571 4.0 0.0
0.0400000402596 4.0 0.0
0.0199999611169 4.0 0.0
0.0 3.97976750927 0.0
0.0 3.9574882542 0.0
0.0 3.93295517223 0.0
0.0 3.90594026646 0.0
0.0 3.87619247056 0.0
0.0 3.84343531161 0.0
0.0 3.80736436348 0.0
0.0 3.76764438299 0.0
0.0 3.72390623714 0.0
0.0 3.67574343203 0.0
0.0 3.6227083524 0.0
0.0 3.56430812579 0.0
0.249757963562 3.75212589829 0.0
1.94999996706 3.74954522137 0.0
0.488710285893 3.75947702441 0.0
0.726520490699 3.7655965719 0.0
0.967283134849 3.7597072979 0.0
1.20619032017 3.75831098673 0.0
1.45842774915 3.76733088374 0.0
1.69012076678 3.7622332834 0.0
0.130754044069 3.86878249167 0.0
2.06924595593 3.86878249167 0.0
1.8299999918 3.84622455633 0.0
1.56816462369 3.85034872999 0.0
0.369913859351 3.84868157925 0.0
0.608733620231 3.84706187144 0.0
1.33069778866 3.84790908234 0.0
0.84323446252 3.84762979148 0.0
1.08873170817 3.84705870913 0.0
0.250539365135 3.87785524304 0.0
1.94967747948 3.87849609822 0.0
1.73218750075 3.8916046151 0.0
0.468661874066 3.89189322974 0.0
1.47574192429 3.89639134117 0.0
0.704258110321 3.8963912684 0.0
1.18331258449 3.8976320365 0.0
0.949999953744 3.89208018478 0.0
1.64795374468 3.91749779939 0.0
0.548928463645 3.91905583847 0.0
1.38619509199 3.91928594438 0.0
0.788926872841 3.91906062101 0.0
1.27071160784 3.91777932845 0.0
1.02999997296 3.91685174433 0.0
1.81733541416 3.69950870754 0.0
1.86999999106 3.91823503401 0.0
0.071252620538 3.93011431841 0.0
2.12874737946 3.93011431841 0.0
2.07400690796 3.74293885365 0.0
0.125993092043 3.74293885365 0.0
0.32995676804 3.92118147353 0.0
2.00999996712 3.92542383197 0.0
0.190000032884 3.92542383197 0.0
1.56698738743 3.72218882919 0.0
1.33000000474 3.72531695685 0.0
0.848014510843 3.71986098938 0.0
1.09024665585 3.72285801424 0.0
0.610276609989 3.72290563624 0.0
1.54999998543 3.92414142844 0.0
0.629999973146 3.92414137652 0.0
0.869999974031 3.92414141814 0.0
1.11000003579 3.92414141267 0.0
1.79030638642 3.92649353654 0.0
0.370434802927 3.72513294336 0.0
0.410903135411 3.92892991244 0.0
1.33000002597 3.93737911571 0.0
0.129927648482 3.94112154503 0.0
2.07007235152 3.94112154503 0.0
1.93000000928 3.93875927586 0.0
0.26999999072 3.93875927586 0.0
1.40966706061 3.83880068991 0.0
0.770332962441 3.83880062149 0.0
1.24904900022 3.84293377683 0.0
1.01033287484 3.83880060723 0.0
0.530342681434 3.83880307444 0.0
0.189895273961 3.63486992823 0.0
2.00989835291 3.62845703161 0.0
0.998888153878 3.61665036233 0.0
1.47894673873 3.61675180774 0.0
0.51733910646 3.62937665489 0.0
0.705112628302 3.618743723 0.0
1.66672137035 3.63168728155 0.0
1.18508242495 3.61871739348 0.0
1.71000003443 3.94408608591 0.0
0.489999965568 3.94463856597 0.0
1.44983363802 3.94422347836 0.0
0.729999997105 3.94465012565 0.0
1.21016639734 3.94422345842 0.0
0.928621800545 3.94440037102 0.0
2.00626203014 3.81543543551 0.0
0.193627962274 3.81528928332 0.0
1.66628164144 3.83559795895 0.0
1.75661718781 3.81065958113 0.0
1.61143779865 3.94859227761 0.0
0.991673865748 3.95161238438 0.0
0.0604617941233 3.86281264864 0.0
2.13953820588 3.86281264865 0.0
0.300965570716 3.8114148258 0.0
0.2970894797 3.66361086085 0.0
0.398842167194 3.60449226805 0.0
1.51000004877 3.95218393067 0.0
1.90135619383 3.81213273629 0.0
0.669405272842 3.95495208979 0.0
1.07142780558 3.94866325309 0.0
0.592085094025 3.94901139323 0.0
0.831051660929 3.94633985879 0.0
1.14940528892 3.9549521224 0.0
0.44409344258 3.82719938178 0.0
1.49646539728 3.82376850413 0.0
0.683434082651 3.82631713605 0.0
0.92337834777 3.8234861632 0.0
1.16343437877 3.82631615351 0.0
1.90749084149 3.65350700271 0.0
1.8278758005 3.95083911942 0.0
0.37243073327 3.95235211027 0.0
1.29345662549 3.60569899261 0.0
0.813407949226 3.60572380122 0.0
1.29317153636 3.96216077293 0.0
1.367704599 3.96055764734 0.0
1.97071235041 3.96038324024 0.0
0.22928764959 3.96038324024 0.0
2.10610581798 3.66047411138 0.0
0.0938941820177 3.66047411138 0.0
1.67000000105 3.95862953468 0.0
1.74869816704 3.96079301687 0.0
0.531976761939 3.96138655466 0.0
0.451361042387 3.96112774725 0.0
0.771976832233 3.96138887156 0.0
1.88843481911 3.95881554986 0.0
1.61277513709 3.78538823015 0.0
2.13311214501 3.79435403671 0.0
0.0668878549946 3.79435403671 0.0
1.76678797151 3.60286552601 0.0
0.311702446283 3.9611157379 0.0
1.02877762737 3.96159282031 0.0
1.40830122607 3.96143175203 0.0
1.25214210333 3.957355862 0.0
1.59476493393 3.9048774062 0.0
1.56950979124 3.96148017208 0.0
0.890017020275 3.96125792969 0.0
2.03089110475 3.96040268709 0.0
0.169108895255 3.96040268709 0.0
0.939722125942 3.68539157065 0.0
1.41686981874 3.69192854313 0.0
0.0426348006718 3.96101756902 0.0
2.15736519933 3.96101756902 0.0
1.36077308019 3.79177204211 0.0
0.817982383499 3.78962669257 0.0
1.05834720932 3.78780184893 0.0
0.578349529346 3.78781530011 0.0
1.77992711518 3.87652731382 0.0
0.417982153133 3.87594990465 0.0
1.84363633012 3.77741329286 0.0
1.52244994479 3.87704541475 0.0
0.657426528912 3.87734838249 0.0
1.13742651778 3.87734834025 0.0
0.898116026439 3.8800466833 0.0
1.56984259435 3.64465823131 0.0
1.08983016076 3.6446495206 0.0
0.609942357805 3.64483976081 0.0
1.29451769374 3.79627773068 0.0
0.0893439668432 3.96574839433 0.0
2.11065603316 3.96574839433 0.0
2.01422398896 3.86980625824 0.0
0.185776011038 3.86980625824 0.0
0.305957237756 3.87340573745 0.0
1.72977480551 3.68665973332 0.0
1.25418096296 3.69351129461 0.0
0.629999973146 3.96272981435 0.0
1.11000003579 3.96272983221 0.0
0.772975283819 3.69297597031 0.0
1.89089074715 3.86951346173 0.0
0.445448577516 3.69456159386 0.0
1.82621986864 3.89678318705 0.0
2.07135424223 3.81165410377 0.0
0.128645757768 3.81165410377 0.0
0.373320289473 3.89968791662 0.0
1.79000004014 3.96541718891 0.0
0.383302070088 3.78976392323 0.0
0.409457623385 3.96502881851 0.0
1.55531527123 3.78787141386 0.0
1.34861332978 3.89383287415 0.0
0.593245985735 3.89483466551 0.0
0.833245353375 3.89479604398 0.0
1.0732444554 3.8948349405 0.0
0.911896623122 3.59194725763 0.0
0.187580554011 3.70699710313 0.0
2.01241944599 3.70699710313 0.0
1.39201907571 3.59233063354 0.0
2.09635520798 3.90516200201 0.0
0.103644792024 3.90516200201 0.0
1.89086147526 3.72621461413 0.0
1.02102684616 3.70044819701 0.0
1.49813234221 3.70194667869 0.0
0.53965669049 3.70593418829 0.0
1.63719578665 3.69772473547 0.0
0.685447658936 3.70127585046 0.0
1.16541741817 3.70128744764 0.0
0.901649266036 3.76287226775 0.0
0.992351690321 3.90662993531 0.0
1.69131894868 3.90657323657 0.0
1.9699561555 3.91599371502 0.0
0.230043844497 3.91599371502 0.0
1.61980840676 3.85005402918 0.0
2.04685187594 3.90639759008 0.0
0.153148124058 3.90639759008 0.0
0.512139828486 3.90538520837 0.0
1.43057458921 3.90702644399 0.0
0.749149996349 3.90689574876 0.0
[...]
POINT_DATA 1163
VECTORS Displacement float
0.0 0.0 0
0.0 0.0 0
0.00962798452912 -0.0019237641333 0
-0.0112933380536 -0.00147113964446 0
0.0 0.0 0
0.0 0.0 0
0.0 0.0 0
0.0 0.0 0
0.0 0.0 0
0.0 0.0 0
0.0 0.0 0
0.0 0.0 0
0.0 0.0 0
0.0 0.0 0
0.0 0.0 0
0.0 0.0 0
0.0 0.0 0
0.0 0.0 0
0.0 0.0 0
0.0 0.0 0
0.0 0.0 0
0.0 0.0 0
0.0 0.0 0
0.0 0.0 0
0.0 0.0 0
0.0 0.0 0
0.0 0.0 0
0.0 0.0 0
0.0 0.0 0
0.0 0.0 0
0.0 0.0 0
0.0 0.0 0
0.0 0.0 0
0.0 0.0 0
0.0 0.0 0
0.00223756070887 -0.00179087086377 0
0.0040417617587 -0.0024189341819 0
0.00552098127764 -0.00258882048636 0
0.00658497732213 -0.00253461283809 0
0.00735180151114 -0.00239915942214 0
0.00790624700253 -0.00224520931212 0
0.00829641186236 -0.00212153596987 0
0.0086087561962 -0.00202799480848 0
0.00885483764958 -0.0019669074764 0
0.0090691730184 -0.00193848681552 0
0.00926656913942 -0.00192620440214 0
0.00945305645008 -0.00192336973798 0
0.00962838945689 -0.00174974741603 0
0.00962735003801 -0.00156978342246 0
0.00962044951302 -0.00138426200882 0
0.009604684629 -0.00119468961855 0
0.00957834051921 -0.00100471473925 0
0.00954048972521 -0.00081994241012 0
0.00948846218689 -0.000639703580876 0
0.00942493058767 -0.000474397002712 0
0.00934574410311 -0.000320493124945 0
0.00925665665243 -0.000187693725454 0
0.0091479513749 -7.35986743412e-05 0
0.0090257096918 1.18282856759e-05 0
0.00889230848725 6.60440840007e-05 0
0.0087380895682 9.07641028094e-05 0
0.00857326251856 7.48757897539e-05 0
0.00838217110452 2.11510185429e-05 0
0.00817635325411 -8.39568685166e-05 0
0.00794657961355 -0.000235559498659 0
0.00769825756077 -0.000453020469354 0
0.00741239729865 -0.000736114410587 0
0.00710816169112 -0.00109721042966 0
0.00679203301171 -0.00154660505397 0
0.00643005523531 -0.0020758435121 0
0.00604602256046 -0.00272438704404 0
0.00561094199355 -0.00348887895792 0
0.00517039239584 -0.00439327889415 0
0.00466982159421 -0.00544314606191 0
0.00414013654824 -0.00667935586309 0
0.00357444011886 -0.00810243855158 0
0.00302335486626 -0.00974040423591 0
0.00243956637377 -0.0116525527489 0
0.00177032926802 -0.0138213538024 0
0.00113802884258 -0.0163136532207 0
0.000480319703043 -0.0191854300568 0
-0.000139278479939 -0.0224897054846 0
-0.000739259341787 -0.026290520959 0
-0.00126762108267 -0.030691565664 0
-0.00167934021204 -0.0359489208395 0
-0.00166275306527 -0.0421208489304 0
-0.000994324755762 -0.0499708466033 0
0.000729441449623 -0.0597471360014 0
0.0025720330087 -0.0688299600328 0
0.00420667122212 -0.0775519120504 0
0.00581022065529 -0.0856438855269 0
0.00706416395053 -0.0933589357182 0
0.00806733223159 -0.100620810463 0
0.00880514028663 -0.107445512638 0
0.00936597940321 -0.113779525906 0
0.00961312350557 -0.119744328821 0
0.00965585482646 -0.125212133024 0
0.00946010490124 -0.130212900427 0
0.00904107107519 -0.134725189953 0
0.00839962626758 -0.138747663155 0
0.00756922750606 -0.142260983117 0
0.00656436331275 -0.145251471235 0
0.00540148048208 -0.147716396026 0
0.00414028328317 -0.149639921294 0
0.00275691617499 -0.151019720137 0
0.00124357886977 -0.151830791904 0
-0.000345133136954 -0.152052067591 0
-0.00198720361456 -0.151831753097 0
-0.00351838033355 -0.150990809716 0
-0.00494063235705 -0.149595021809 0
-0.00624209904206 -0.147649295167 0
-0.00740450261508 -0.145165423933 0
-0.00841157407525 -0.142153541757 0
-0.00929483484415 -0.138610823843 0
-0.00993256461032 -0.13456928098 0
-0.0103755048712 -0.13002977963 0
-0.0105949446866 -0.12499929943 0
-0.0105857617194 -0.119486111291 0
-0.0103347104202 -0.113548018007 0
-0.00986261605396 -0.107159371659 0
-0.0090837123338 -0.100312453422 0
-0.00811118211976 -0.0930110845643 0
-0.00687470908367 -0.0852582038337 0
-0.00537323314357 -0.0770979851856 0
-0.00366598080299 -0.0683470064493 0
-0.00191109786246 -0.0592018143329 0
-0.000160437289597 -0.0493826706979 0
7.63890633654e-05 -0.0417629736739 0
-3.59119125167e-05 -0.0357168345391 0
-0.00044818208232 -0.0306881106824 0
-0.00106971764048 -0.0262988612265 0
-0.00170743355848 -0.0225579797565 0
-0.00247890173777 -0.0193194054179 0
-0.00318725772978 -0.0165517526552 0
-0.00391892053585 -0.0141521834363 0
-0.00458611424617 -0.0120617045018 0
-0.00527502304952 -0.0102507240627 0
-0.00596244246729 -0.00870356135972 0
-0.00657765634593 -0.00736967140558 0
-0.00716618292216 -0.00624764772701 0
-0.00771948289105 -0.00528595841807 0
-0.00824118030914 -0.00448846804042 0
-0.00870313486009 -0.00381934673843 0
-0.0091460857542 -0.00328069299473 0
-0.0095327903925 -0.00284232502241 0
-0.00989134167503 -0.00250142802536 0
-0.0102112715932 -0.0022501808142 0
-0.0104745990952 -0.00205649711879 0
-0.0107086763974 -0.00192638400612 0
-0.010895644806 -0.00182985404348 0
-0.0110473644148 -0.00177610932978 0
-0.0111564711544 -0.00173311835436 0
-0.0112309396362 -0.00170272764138 0
-0.0112743573115 -0.00166816620835 0
-0.0112926542105 -0.00161978088542 0
-0.0112946618653 -0.00155399591816 0
-0.0113799783203 -0.00146983760069 0
-0.0114932334054 -0.00147661217834 0
-0.011642733767 -0.00150967527385 0
-0.0118217098859 -0.00158785801029 0
-0.0119987267 -0.00176043686785 0
-0.0120930290493 -0.00203186100442 0
-0.0120831625765 -0.00240554241095 0
-0.0117609800065 -0.00289276395457 0
-0.0110055431533 -0.00339625150513 0
-0.00962248907934 -0.00381949696725 0
-0.00729162077556 -0.00384837590772 0
-0.00415016341675 -0.00302410873463 0
-0.0136319429058 -0.00278222913166 0
0.00809576666002 -0.00019052850708 0
-0.0201402162881 -0.0164764354875 0
-0.0198674199522 -0.0509638154487 0
-0.00316259106217 -0.0699615618875 0
0.0155007198277 -0.0580995848986 0
0.0204621597014 -0.0234227212001 0
0.0132832452473 -0.00389870251886 0
-0.0122543526955 -0.00171535588153 0
0.00863483066245 -0.000700419345087 0
0.00987042796097 -0.000345629381267 0
0.0151051966466 -0.0124189095066 0
-0.0152121787715 -0.00757090062538 0
-0.0218603089606 -0.0420255459451 0
0.0204946437824 -0.0563995438839 0
-0.0134308905505 -0.0883067862196 0
0.00724357994152 -0.095038204379 0
-0.0126331170959 -0.00277994012088 0
0.00894079645785 0.000103849623641 0
0.0100373034089 -0.00213557372869 0
-0.0152753606774 -0.017248044313 0
0.0152002248734 -0.0265349893666 0
-0.0190628680894 -0.0737932958342 0
0.013406214695 -0.0991718936452 0
-0.00471605020271 -0.112114479868 0
0.00960136055497 -0.00591312713345 0
-0.0151871279337 -0.0322362847322 0
0.0160104558125 -0.0508605018877 0
-0.0150479157039 -0.0996616169978 0
0.0160449940131 -0.0853547064655 0
0.00204487299558 -0.121402293484 0
0.00931144304092 -0.00103801684379 0
0.00895123659883 9.75802380825e-05 0
-0.0116696896018 -0.00167990317113 0
0.00905027814574 -0.00127376745138 0
0.00713051828006 -0.000810967543841 0
-0.011877602369 -0.00181511342592 0
-0.0114676787542 -0.00539245943627 0
0.00896234053306 -0.000189037008638 0
-0.0115041448767 -0.00194790853922 0
0.0167437049034 -0.0101899610654 0
0.0197053679917 -0.0358911196191 0
-0.0119243727887 -0.0528464385087 0
0.00686465900462 -0.0571919453652 0
-0.0210168981443 -0.0279016772472 0
0.0102489912496 -0.0147424618874 0
-0.0171089697228 -0.0561357257037 0
-0.0104569944601 -0.115458587061 0
0.00818671110836 -0.118125020207 0
0.0088495293242 -0.000726684588317 0
-0.0161641417393 -0.00664507461759 0
-0.0112559775023 -0.01084438436 0
0.0148479032704 -0.0716589540276 0
-0.0114516297804 -0.00170442532217 0
0.00909063903464 -0.000697414136524 0
0.00888530582034 0.000176777025743 0
-0.0108811626031 -0.0032582598189 0
0.0206116567631 -0.0374158852815 0
-0.0180947385671 -0.0748162497018 0
0.018081081779 -0.0725679374911 0
0.000501424863637 -0.0953453648566 0
-0.0203714998318 -0.0257473298521 0
-0.0088641192946 -0.00156256200249 0
0.00466085092287 -0.000418686224996 0
-0.000304697395329 -0.0289998646844 0
0.0133081176492 -0.0100345934004 0
-0.0148402278515 -0.0107368588276 0
-0.0134030330565 -0.0203285140431 0
0.0104168493135 -0.00348358615948 0
0.00930431198683 -0.0257137941526 0
0.00816114922998 -0.00286284813413 0
-0.0103568269344 -0.020615568703 0
0.0102909749316 -0.0331109246246 0
-0.0150899016688 -0.0913506654472 0
0.0128017406717 -0.107031801391 0
-0.00605010637892 -0.128736522227 0
0.00839465475262 -0.00024902995987 0
-0.0129800731777 -0.00200829405924 0
0.0129348038536 -0.00498682962056 0
0.011355786288 -0.00173132429217 0
0.0075976494974 -0.00851743296113 0
-0.00108895993006 -0.134158540845 0
-0.012162572358 -0.00183128496417 0
0.00852539874327 -0.00142977053562 0
-0.0146227582991 -0.00422035181547 0
-0.0122335266303 -0.00326271356394 0
-0.0109094342695 -0.00465360520142 0
0.00758503224182 -0.0206102447435 0
0.00917776668759 -3.38730699288e-05 0
-0.0138406796813 -0.0739920352822 0
0.00515642575809 -0.130287095961 0
-0.0127162826632 -0.0453932051863 0
-0.0121095029738 -0.116086162222 0
0.00995198565584 -0.122456541993 0
-0.0180255830344 -0.0136152535741 0
0.0186928868075 -0.0209508130425 0
-0.0217583318963 -0.0554098844868 0
-0.00715799856476 -0.0882814789089 0
0.0131034989374 -0.081427109314 0
0.0065254551413 -0.000484874028923 0
0.00847501181758 -0.000222519516076 0
-0.00952531306942 -0.0078623362217 0
0.0118640828001 -0.0182019861622 0
-0.00908891097393 -0.0225255896465 0
0.0122942669574 -0.0883984904266 0
0.0108326879122 -0.0615021373087 0
0.00898291263667 2.96308611881e-05 0
-0.0105588525425 -0.00247193587385 0
0.0051462686987 -0.000990107797736 0
-0.0091916811287 -0.00176920090914 0
0.00721356233727 -0.00466886658756 0
0.00776564717507 -0.00165886588483 0
-0.00843753487712 -0.0286472689327 0
-0.00814800988055 -0.0151712280071 0
-0.0133183094787 -0.107101301268 0
0.00866509394569 0.000147066868373 0
0.0155919771386 -0.00810269635745 0
0.0078053781951 -0.00142008389028 0
-0.0122175895732 -0.00203895697546 0
0.00683382973176 -0.00146736014457 0
-0.00963948614289 -0.00468608065522 0
0.00186979243062 -0.13731735611 0
0.00909975638006 -0.0460520844547 0
0.0128829776756 -0.099789755247 0
0.0111128537184 -0.00991144736098 0
0.00627683690305 -0.012485953827 0
-0.00851938072751 -0.130435985778 0
0.00914425209582 -0.000362118592952 0
-0.0110365897585 -0.00185969162257 0
-0.00479279299615 -0.0474368297688 0
0.0188896353776 -0.021521314807 0
-0.0114665884695 -0.00162775745428 0
0.00929325902755 -0.00154559242154 0
0.0214751131787 -0.0415834436028 0
-0.0152434092509 -0.0688609843596 0
0.00469329218868 -0.0779418950834 0
-0.0223022216546 -0.0303839641612 0
0.00998284716602 -0.000993790771713 0
-0.0150654404338 -0.0114065129012 0
0.00983796957852 -0.000491317248778 0
0.0150060820881 -0.0183616539001 0
-0.0207658904633 -0.0578949213857 0
0.0107995508785 -0.0998220755229 0
-0.00905249864547 -0.104474705059 0
0.0135674868791 -0.00727893965507 0
0.00530225606768 -0.0354740968758 0
-0.016537963175 -0.0181968750203 0
0.0201505488009 -0.0541886803234 0
-0.0113574322956 -0.00168391850262 0
0.00930371201159 -0.00109411346739 0
0.00873791650441 -0.000237788816298 0
-0.0124259697876 -0.00190871335355 0
-0.0132706537826 -0.00436591047374 0
0.0110635451307 -0.00252546612562 0
0.016010802238 -0.0381615665471 0
-0.0116641171423 -0.0603590327039 0
0.00760115146439 -0.130996916436 0
-0.015503276814 -0.0402500097362 0
0.00921837513068 0.000112852275162 0
-0.0174164599725 -0.0101339621208 0
0.00930513868891 -0.000252743391789 0
0.00811936779123 -0.000751164050738 0
-0.0125097080951 -0.00177150526229 0
-0.0128959866111 -0.00786270665287 0
0.00797716156175 -0.000778149830736 0
-0.0169078307665 -0.00816732834753 0
-0.00814682173121 -0.0107926793438 0
0.0174690365096 -0.0129009397674 0
0.0185692788988 -0.0591719566604 0
-0.0190109121584 -0.042555416743 0
-0.0134227299552 -0.100921589483 0
0.00570328515487 -0.111736720237 0
-0.00414365347849 -0.0217902130393 0
-0.0116854938904 -0.00188496154756 0
0.00674759361108 -0.000426732498698 0
0.0115844388335 -0.0115773046856 0
0.0088716773474 -0.000951297474562 0
-0.011881112725 -0.00168479087621 0
0.00850342260946 -0.000384363351919 0
0.0012982303959 -0.0523855609041 0
0.0180818851668 -0.0148258407429 0
-0.0197843450287 -0.018503501743 0
0.0140110588693 -0.0056562084728 0
-0.019098454232 -0.0334156056857 0
0.0116591767182 -0.0470573543806 0
-0.00869361521652 -0.0684072817401 0
-0.00111558278515 -0.118268027404 0
0.00983004356447 -0.00364647083869 0
0.00893248152341 4.91397021698e-05 0
-0.0116441619511 -0.0024133373662 0
0.0135899490165 -0.0079100156622 0
0.00888388636728 -0.000485282287929 0
-0.0118508901171 -0.00174227960458 0
-0.0153947135262 -0.024296661248 0
0.0158499910753 -0.0371826388211 0
-0.0171556416476 -0.0874736839881 0
0.015063487898 -0.0938821760698 0
0.00667482097664 -0.00147960104543 0
-0.0112342649553 -0.00224934691684 0
-0.00374955039697 -0.138556939945 0
-0.0119004914888 -0.00173098206845 0
0.00882605532965 -0.00159672358013 0
0.00570654190566 -0.0266282362607 0
-0.0128436119032 -0.0874111585434 0
0.0109005168726 -0.11971443468 0
-0.0135110894843 -0.00273795704462 0
-0.0150431411251 -0.00453159481195 0
0.0186936161629 -0.0711356825212 0
0.00879176744485 8.95384296917e-07 0
0.0111876517375 -0.0763450832549 0
0.0112094052355 -0.00173844956707 0
0.00957332430404 -0.0719159723288 0
-0.0223355642092 -0.0391772273385 0
0.011169173514 -0.0256133362296 0
-0.0166929825076 -0.0788217598183 0
0.0120765585798 -0.109764728379 0
0.00638760927596 -0.00661086329214 0
-0.0113342309257 -0.076676160229 0
0.00462433386243 -0.000650527752902 0
0.0088301574046 0.00015099034247 0
-0.0100075597531 -0.00333930572051 0
-0.00810253287209 -0.0356175186679 0
-0.0124164204113 -0.115128837691 0
0.005723543096 -0.0158935984032 0
-0.0100470880979 -0.127481812619 0
0.00845104127585 2.32064240088e-05 0
0.00925041794516 -0.00070400406642 0
-0.011201227649 -0.00173295261721 0
-0.00891205940192 -0.00588626285844 0
0.0116100238165 -0.00269790560906 0
0.009091218926 -0.000132455851503 0
-0.0106615754415 -0.00214231354901 0
-0.0185617739066 -0.0185096338515 0
0.0191808997867 -0.0282870544083 0
-0.0202596388415 -0.0672364558215 0
0.0153606590647 -0.0807790650485 0
-0.00374322718359 -0.0970858713498 0
0.00375756103676 -0.000433708512967 0
-0.00647068915863 -0.00158284311876 0
0.00914324603051 -0.0015738422903 0
-0.00341111594633 -0.125754903355 0
-0.0126422284865 -0.0148512059531 0
0.0173736812957 -0.0733526372851 0
-0.0160525548152 -0.0881411030518 0
0.00283521468296 -0.105548001266 0
-0.0196116001484 -0.0325140137837 0
-0.0050306556614 -0.000993163574323 0
0.00265346521466 -0.000447622107927 0
-0.00756275944054 -0.00248900817108 0
0.00899650545777 0.00018538519072 0
-0.0120656565455 -0.00403137991618 0
0.0192280388731 -0.0175643963739 0
0.0196870576969 -0.0469255813471 0
-0.00792579845188 -0.115993288902 0
-0.018296277238 -0.0108256591376 0
0.0115759223838 -0.0192304013298 0
-0.0180580311957 -0.0662953438532 0
0.010622762176 -0.11122281654 0
0.00833395368413 -0.00103016857211 0
-0.0123591909473 -0.00179399250977 0
0.00710828239827 -0.00294322061325 0
0.00904148751798 -0.011748726936 0
0.00776722453858 -0.000453217040933 0
-0.0126394302668 -0.00186834470596 0
-0.00695571865013 -0.0207315751832 0
0.00628201090026 -0.0321760088738 0
-0.013200102059 -0.0951710266929 0
-0.00558951262541 -0.137560507185 0
0.0116084864954 -0.114084373451 0
0.0182473962786 -0.0477880554488 0
0.0116093397272 -0.00504151273334 0
0.00809638285227 -0.00171456571683 0
-0.0122147444831 -0.002087922487 0
0.0204357678004 -0.0287861670365 0
0.00636210180786 -0.00262646261472 0
0.0105662034059 -0.000867081673106 0
0.00423146348207 -0.0137312303456 0
0.0166996755278 -0.0246118893062 0
-0.00857002894684 -0.00893891850148 0
-0.00968478593498 -0.0379318310326 0
-0.0119447567021 -0.00253795471727 0
-0.016544233958 -0.0531211540465 0
-0.0155180967915 -0.00596462740733 0
0.013166785588 -0.012725434329 0
-0.00911481959574 -0.00494097913587 0
-0.00536120446342 -0.00176514703064 0
0.00287789925812 -0.00107393762002 0
0.00934956263476 -0.00133654696834 0
-0.0113930531835 -0.00166299059691 0
0.00931488380274 -2.36809356846e-06 0
0.00788283727296 -0.0146908562912 0
-0.00842670158091 -0.0142819891777 0
-0.0116806227734 -0.00164286398612 0
0.00904785051735 -0.00166844060421 0
-0.0101023764142 -0.00760883412283 0
0.006833327276 -0.000362263503867 0
-0.0140012239202 -0.00528814686408 0
0.00148736402955 -0.0186261382096 0
0.00925721468859 -0.00561591257913 0
-0.0213001234627 -0.0224057307564 0
-0.0133693245444 -0.00557538052316 0
0.0211324416451 -0.0295892778954 0
0.000191113921615 -0.0783145827721 0
0.00532607712924 -0.00883188714953 0
-0.00114675673081 -0.143012459999 0
0.0163181105934 -0.0608526639599 0
0.00849518423903 -0.000449547918629 0
-0.0125986071353 -0.00178610332835 0
0.00572471163916 -0.00159819860345 0
0.0182929184501 -0.0596112596521 0
0.00338659649562 -0.142061327466 0
-0.0186216766155 -0.0597374836135 0
-0.0160305495792 -0.0807186002892 0
0.00351314082099 -0.0966434518004 0
-0.0211369411273 -0.0324560733649 0
0.0211232323124 -0.045737463504 0
0.0060937432748 -0.0533974149334 0
0.0109697945557 -0.0993874775789 0
0.00727120980197 -0.000811444040248 0
0.0090715091975 -0.000980291725524 0
-0.0115849793175 -0.0016742605803 0
-0.00889366507974 -0.0516199594537 0
-0.0106828543733 -0.0710032798172 0
0.00607321029877 -0.136302286193 0
0.00874922423783 -0.130825521321 0
-0.0108764029846 -0.00172190850002 0
0.00626204929087 -0.000735115002209 0
0.0127857579769 -0.00359661871585 0
0.00886239603852 -0.00127074474292 0
-0.0118819702314 -0.00171099398684 0
0.00945796571149 -4.41447019497e-05 0
0.00324219614605 -0.0206811781861 0
-0.0108155711016 -0.127096423977 0
-0.0216913122456 -0.046804864073 0
0.0129085727897 -0.0680835392827 0
0.00802481931564 -0.000436978788137 0
0.0177605942573 -0.0776492034609 0
-0.00782441125291 -0.00897566202285 0
-0.0114125661739 -0.0015808661323 0
0.00939046954594 -0.00168899131614 0
-0.0113282685387 -0.104545294738 0
0.00833541554134 -0.107443656316 0
-0.0199997947686 -0.0511671120405 0
-0.0128273847314 -0.00231412796242 0
0.0090967378056 -0.000220108781419 0
0.00881215457182 -4.31163942305e-05 0
0.00902544300084 -0.000467743405977 0
-0.0114730053486 -0.00175825978453 0
0.00885371287594 -5.92397918421e-05 0
0.00750641501233 -0.00119694816456 0
-0.00665359689442 -0.0128028498485 0
0.0141034663484 -0.00549208578703 0
0.0168384759876 -0.0164295188164 0
-0.0221844221301 -0.0488159778424 0
-0.0100292580165 -0.0888333767338 0
0.0101918169685 -0.0886485140538 0
-0.0165318009768 -0.010277320813 0
-0.00132963581565 -0.104973321583 0
-0.0197815138425 -0.0171919830187 0
0.0189179907356 -0.0352205445439 0
-0.0182599407776 -0.0232151003472 0
-0.0185867630593 -0.0787446220854 0
0.00888516440811 -8.54299212164e-05 0
0.02026182908 -0.0256581368365 0
-0.0120149680187 -0.00206319872912 0
-0.0206613401611 -0.057754751167 0
-0.0039230294729 -0.0831452778841 0
0.0155985592918 -0.0700952590109 0
0.00972170956787 -0.00788050334909 0
0.0115130881214 -0.00696440739937 0
-0.0155064872239 -0.0392321223193 0
-0.0136488294955 -0.106474147744 0
0.00442269226687 -0.121525916089 0
0.00830684294231 -0.0708244776718 0
0.00979894604081 -0.0856029398378 0
0.0171668287687 -0.0232588574453 0
-0.0208131374328 -0.0640241138636 0
0.0131926260042 -0.0919697571402 0
-0.00633669122126 -0.102268734254 0
0.00891878594829 8.88784681777e-05 0
-0.00983934052635 -0.00294688951209 0
-0.011038664022 -0.00675046039975 0
0.0145551229487 -0.00575528766258 0
0.0128079464465 -0.0404783671935 0
0.0140347127308 -0.098448350277 0
0.01065388247 -0.00175364650936 0
0.00869980572874 0.000141403441184 0
-0.0117396654919 -0.0803533368707 0
0.00992487039569 -0.125684452514 0
0.00838328598888 -0.000137265287582 0
-0.013440273841 -0.00238807246814 0
0.00236839214403 -0.0663025639787 0
-0.0120756651174 -0.00183102715559 0
0.00860338647664 -0.00168448461018 0
-0.014368476443 -0.00568983463081 0
-0.021489584206 -0.0239196363938 0
-0.0092314126515 -0.00396869919292 0
-0.0166961216183 -0.0148418979592 0
0.00894375909162 0.000149446382507 0
-0.0118391476883 -0.00288372515672 0
0.0107943126486 -0.00367310046018 0
-0.00488642307118 -0.000962732525348 0
0.0025755703068 -0.000299295118443 0
-0.0134321992514 -0.00332271422104 0
-0.00112635452505 -0.0166107849818 0
0.00906335001286 -0.00679632496098 0