# vtk DataFile Version 2.0
Generated with Solid Solver
ASCII
DATASET UNSTRUCTURED_GRID
POINTS 1163 float 
0.0 3.5 0.0
2.2 3.5 0.0
2.2 4.0 0.0
0.0 4.0 0.0
0.0687499999999 3.5 0.0
0.1375 3.5 0.0
0.20625 3.5 0.0
0.275 3.5 0.0
0.343749999999 3.5 0.0
0.412499999999 3.5 0.0
0.481249999999 3.5 0.0
0.549999999999 3.5 0.0
0.618749999998 3.5 0.0
0.687499999998 3.5 0.0
0.756249999998 3.5 0.0
0.824999999998 3.5 0.0
0.893749999998 3.5 0.0
0.962499999997 3.5 0.0
1.03125 3.5 0.0
1.1 3.5 0.0
1.16875 3.5 0.0
1.2375 3.5 0.0
1.30625 3.5 0.0
1.375 3.5 0.0
1.44375 3.5 0.0
1.5125 3.5 0.0
1.58125 3.5 0.0
1.65 3.5 0.0
1.71875 3.5 0.0
1.7875 3.5 0.0
1.85625 3.5 0.0
1.925 3.5 0.0
1.99375 3.5 0.0
2.0625 3.5 0.0
2.13125 3.5 0.0
2.2 3.56430812579 0.0
2.2 3.6227083524 0.0
2.2 3.67574343203 0.0
2.2 3.72390623714 0.0
2.2 3.76764438299 0.0
2.2 3.80736436348 0.0
2.2 3.84343531161 0.0
2.2 3.87619247056 0.0
2.2 3.90594026646 0.0
2.2 3.93295517223 0.0
2.2 3.9574882542 0.0
2.2 3.97976750927 0.0
2.18000003888 4.0 0.0
2.15999995974 4.0 0.0
2.13999995594 4.0 0.0
2.12000003893 4.0 0.0
2.0999999813 4.0 0.0
2.07999993507 4.0 0.0
2.06000001965 4.0 0.0
2.04000002354 4.0 0.0
2.01999993997 4.0 0.0
1.99999999426 4.0 0.0
1.98000004623 4.0 0.0
1.95999996625 4.0 0.0
1.93999996787 4.0 0.0
1.92000005069 4.0 0.0
1.90000001292 4.0 0.0
1.87999994967 4.0 0.0
1.86000003245 4.0 0.0
1.84000003166 4.0 0.0
1.81999995194 4.0 0.0
1.80000002065 4.0 0.0
1.78000005962 4.0 0.0
1.75999997703 4.0 0.0
1.73999998149 4.0 0.0
1.72000006236 4.0 0.0
1.70000000651 4.0 0.0
1.67999995967 4.0 0.0
1.66000004242 4.0 0.0
1.64000004304 4.0 0.0
1.61999996152 4.0 0.0
1.6000000096 4.0 0.0
1.58000006667 4.0 0.0
1.55999998704 4.0 0.0
1.53999998381 4.0 0.0
1.52000006764 4.0 0.0
1.5000000299 4.0 0.0
1.47999996242 4.0 0.0
1.46000004337 4.0 0.0
1.4400000454 4.0 0.0
1.41999996386 4.0 0.0
1.40000002834 4.0 0.0
1.38000006734 4.0 0.0
1.35999998576 4.0 0.0
1.33999998537 4.0 0.0
1.32000006658 4.0 0.0
1.30000001585 4.0 0.0
1.27999996279 4.0 0.0
1.26000004759 4.0 0.0
1.24000004493 4.0 0.0
1.2199999616 4.0 0.0
1.20000000906 4.0 0.0
1.18000006792 4.0 0.0
1.15999998616 4.0 0.0
1.13999999119 4.0 0.0
1.12000007157 4.0 0.0
1.1 4.0 0.0
1.07999992843 4.0 0.0
1.06000000881 4.0 0.0
1.04000001384 4.0 0.0
1.01999993209 4.0 0.0
0.999999990948 4.0 0.0
0.98000003841 4.0 0.0
0.959999955072 4.0 0.0
0.939999952416 4.0 0.0
0.920000037214 4.0 0.0
0.899999984154 4.0 0.0
0.879999933427 4.0 0.0
0.860000014636 4.0 0.0
0.840000014246 4.0 0.0
0.819999932662 4.0 0.0
0.79999997166 4.0 0.0
0.780000036145 4.0 0.0
0.759999954604 4.0 0.0
0.73999995663 4.0 0.0
0.72000003758 4.0 0.0
0.699999970103 4.0 0.0
0.679999932361 4.0 0.0
0.660000016189 4.0 0.0
0.640000012962 4.0 0.0
0.61999993333 4.0 0.0
0.599999990406 4.0 0.0
0.58000003848 4.0 0.0
0.559999956964 4.0 0.0
0.539999957581 4.0 0.0
0.520000040329 4.0 0.0
0.499999993489 4.0 0.0
0.479999937647 4.0 0.0
0.460000018512 4.0 0.0
0.440000022972 4.0 0.0
0.419999940378 4.0 0.0
0.399999979352 4.0 0.0
0.380000048063 4.0 0.0
0.359999968347 4.0 0.0
0.339999967553 4.0 0.0
0.320000050328 4.0 0.0
0.299999987077 4.0 0.0
0.279999949312 4.0 0.0
0.260000032129 4.0 0.0
0.240000033752 4.0 0.0
0.219999953776 4.0 0.0
0.200000005737 4.0 0.0
0.180000060031 4.0 0.0
0.159999976465 4.0 0.0
0.139999980354 4.0 0.0
0.120000064926 4.0 0.0
0.100000018697 4.0 0.0
0.0799999610675 4.0 0.0
0.0600000440571 4.0 0.0
0.0400000402596 4.0 0.0
0.0199999611169 4.0 0.0
0.0 3.97976750927 0.0
0.0 3.9574882542 0.0
0.0 3.93295517223 0.0
0.0 3.90594026646 0.0
0.0 3.87619247056 0.0
0.0 3.84343531161 0.0
0.0 3.80736436348 0.0
0.0 3.76764438299 0.0
0.0 3.72390623714 0.0
0.0 3.67574343203 0.0
0.0 3.6227083524 0.0
0.0 3.56430812579 0.0
0.249757963562 3.75212589829 0.0
1.94999996706 3.74954522137 0.0
0.488710285893 3.75947702441 0.0
0.726520490699 3.7655965719 0.0
0.967283134849 3.7597072979 0.0
1.20619032017 3.75831098673 0.0
1.45842774915 3.76733088374 0.0
1.69012076678 3.7622332834 0.0
0.130754044069 3.86878249167 0.0
2.06924595593 3.86878249167 0.0
1.8299999918 3.84622455633 0.0
1.56816462369 3.85034872999 0.0
0.369913859351 3.84868157925 0.0
0.608733620231 3.84706187144 0.0
1.33069778866 3.84790908234 0.0
0.84323446252 3.84762979148 0.0
1.08873170817 3.84705870913 0.0
0.250539365135 3.87785524304 0.0
1.94967747948 3.87849609822 0.0
1.73218750075 3.8916046151 0.0
0.468661874066 3.89189322974 0.0
1.47574192429 3.89639134117 0.0
0.704258110321 3.8963912684 0.0
1.18331258449 3.8976320365 0.0
0.949999953744 3.89208018478 0.0
1.64795374468 3.91749779939 0.0
0.548928463645 3.91905583847 0.0
1.38619509199 3.91928594438 0.0
0.788926872841 3.91906062101 0.0
1.27071160784 3.91777932845 0.0
1.02999997296 3.91685174433 0.0
1.81733541416 3.69950870754 0.0
1.86999999106 3.91823503401 0.0
0.071252620538 3.93011431841 0.0
2.12874737946 3.93011431841 0.0
2.07400690796 3.74293885365 0.0
0.125993092043 3.74293885365 0.0
0.32995676804 3.92118147353 0.0
2.00999996712 3.92542383197 0.0
0.190000032884 3.92542383197 0.0
1.56698738743 3.72218882919 0.0
1.33000000474 3.72531695685 0.0
0.848014510843 3.71986098938 0.0
1.09024665585 3.72285801424 0.0
0.610276609989 3.72290563624 0.0
1.54999998543 3.92414142844 0.0
0.629999973146 3.92414137652 0.0
0.869999974031 3.92414141814 0.0
1.11000003579 3.92414141267 0.0
1.79030638642 3.92649353654 0.0
0.370434802927 3.72513294336 0.0
0.410903135411 3.92892991244 0.0
1.33000002597 3.93737911571 0.0
0.129927648482 3.94112154503 0.0
2.07007235152 3.94112154503 0.0
1.93000000928 3.93875927586 0.0
0.26999999072 3.93875927586 0.0
1.40966706061 3.83880068991 0.0
0.770332962441 3.83880062149 0.0
1.24904900022 3.84293377683 0.0
1.01033287484 3.83880060723 0.0
0.530342681434 3.83880307444 0.0
0.189895273961 3.63486992823 0.0
2.00989835291 3.62845703161 0.0
0.998888153878 3.61665036233 0.0
1.47894673873 3.61675180774 0.0
0.51733910646 3.62937665489 0.0
0.705112628302 3.618743723 0.0
1.66672137035 3.63168728155 0.0
1.18508242495 3.61871739348 0.0
1.71000003443 3.94408608591 0.0
0.489999965568 3.94463856597 0.0
1.44983363802 3.94422347836 0.0
0.729999997105 3.94465012565 0.0
1.21016639734 3.94422345842 0.0
0.928621800545 3.94440037102 0.0
2.00626203014 3.81543543551 0.0
0.193627962274 3.81528928332 0.0
1.66628164144 3.83559795895 0.0
1.75661718781 3.81065958113 0.0
1.61143779865 3.94859227761 0.0
0.991673865748 3.95161238438 0.0
0.0604617941233 3.86281264864 0.0
2.13953820588 3.86281264865 0.0
0.300965570716 3.8114148258 0.0
0.2970894797 3.66361086085 0.0
0.398842167194 3.60449226805 0.0
1.51000004877 3.95218393067 0.0
1.90135619383 3.81213273629 0.0
0.669405272842 3.95495208979 0.0
1.07142780558 3.94866325309 0.0
0.592085094025 3.94901139323 0.0
0.831051660929 3.94633985879 0.0
1.14940528892 3.9549521224 0.0
0.44409344258 3.82719938178 0.0
1.49646539728 3.82376850413 0.0
0.683434082651 3.82631713605 0.0
0.92337834777 3.8234861632 0.0
1.16343437877 3.82631615351 0.0
1.90749084149 3.65350700271 0.0
1.8278758005 3.95083911942 0.0
0.37243073327 3.95235211027 0.0
1.29345662549 3.60569899261 0.0
0.813407949226 3.60572380122 0.0
1.29317153636 3.96216077293 0.0
1.367704599 3.96055764734 0.0
1.97071235041 3.96038324024 0.0
0.22928764959 3.96038324024 0.0
2.10610581798 3.66047411138 0.0
0.0938941820177 3.66047411138 0.0
1.67000000105 3.95862953468 0.0
1.74869816704 3.96079301687 0.0
0.531976761939 3.96138655466 0.0
0.451361042387 3.96112774725 0.0
0.771976832233 3.96138887156 0.0
1.88843481911 3.95881554986 0.0
1.61277513709 3.78538823015 0.0
2.13311214501 3.79435403671 0.0
0.0668878549946 3.79435403671 0.0
1.76678797151 3.60286552601 0.0
0.311702446283 3.9611157379 0.0
1.02877762737 3.96159282031 0.0
1.40830122607 3.96143175203 0.0
1.25214210333 3.957355862 0.0
1.59476493393 3.9048774062 0.0
1.56950979124 3.96148017208 0.0
0.890017020275 3.96125792969 0.0
2.03089110475 3.96040268709 0.0
0.169108895255 3.96040268709 0.0
0.939722125942 3.68539157065 0.0
1.41686981874 3.69192854313 0.0
0.0426348006718 3.96101756902 0.0
2.15736519933 3.96101756902 0.0
1.36077308019 3.79177204211 0.0
0.817982383499 3.78962669257 0.0
1.05834720932 3.78780184893 0.0
0.578349529346 3.78781530011 0.0
1.77992711518 3.87652731382 0.0
0.417982153133 3.87594990465 0.0
1.84363633012 3.77741329286 0.0
1.52244994479 3.87704541475 0.0
0.657426528912 3.87734838249 0.0
1.13742651778 3.87734834025 0.0
0.898116026439 3.8800466833 0.0
1.56984259435 3.64465823131 0.0
1.08983016076 3.6446495206 0.0
0.609942357805 3.64483976081 0.0
1.29451769374 3.79627773068 0.0
0.0893439668432 3.96574839433 0.0
2.11065603316 3.96574839433 0.0
2.01422398896 3.86980625824 0.0
0.185776011038 3.86980625824 0.0
0.305957237756 3.87340573745 0.0
1.72977480551 3.68665973332 0.0
1.25418096296 3.69351129461 0.0
0.629999973146 3.96272981435 0.0
1.11000003579 3.96272983221 0.0
0.772975283819 3.69297597031 0.0
1.89089074715 3.86951346173 0.0
0.445448577516 3.69456159386 0.0
1.82621986864 3.89678318705 0.0
2.07135424223 3.81165410377 0.0
0.128645757768 3.81165410377 0.0
0.373320289473 3.89968791662 0.0
1.79000004014 3.96541718891 0.0
0.383302070088 3.78976392323 0.0
0.409457623385 3.96502881851 0.0
1.55531527123 3.78787141386 0.0
1.34861332978 3.89383287415 0.0
0.593245985735 3.89483466551 0.0
0.833245353375 3.89479604398 0.0
1.0732444554 3.8948349405 0.0
0.911896623122 3.59194725763 0.0
0.187580554011 3.70699710313 0.0
2.01241944599 3.70699710313 0.0
1.39201907571 3.59233063354 0.0
2.09635520798 3.90516200201 0.0
0.103644792024 3.90516200201 0.0
1.89086147526 3.72621461413 0.0
1.02102684616 3.70044819701 0.0
1.49813234221 3.70194667869 0.0
0.53965669049 3.70593418829 0.0
1.63719578665 3.69772473547 0.0
0.685447658936 3.70127585046 0.0
1.16541741817 3.70128744764 0.0
0.901649266036 3.76287226775 0.0
0.992351690321 3.90662993531 0.0
1.69131894868 3.90657323657 0.0
1.9699561555 3.91599371502 0.0
0.230043844497 3.91599371502 0.0
1.61980840676 3.85005402918 0.0
2.04685187594 3.90639759008 0.0
0.153148124058 3.90639759008 0.0
0.512139828486 3.90538520837 0.0
1.43057458921 3.90702644399 0.0
0.749149996349 3.90689574876 0.0
[...]
POINT_DATA 1163
VECTORS Displacement float
0.0 0.0 0
0.0 0.0 0
0.00235005427437 -0.000627491801339 0
-0.00263936998749 0.000571139000948 0
0.0 0.0 0
0.0 0.0 0
0.0 0.0 0
0.0 0.0 0
0.0 0.0 0
0.0 0.0 0
0.0 0.0 0
0.0 0.0 0
0.0 0.0 0
0.0 0.0 0
0.0 0.0 0
0.0 0.0 0
0.0 0.0 0
0.0 0.0 0
0.0 0.0 0
0.0 0.0 0
0.0 0.0 0
0.0 0.0 0
0.0 0.0 0
0.0 0.0 0
0.0 0.0 0
0.0 0.0 0
0.0 0.0 0
0.0 0.0 0
0.0 0.0 0
0.0 0.0 0
0.0 0.0 0
0.0 0.0 0
0.0 0.0 0
0.0 0.0 0
0.0 0.0 0
0.000398019099417 -0.000363175376192 0
0.000736237510155 -0.000524706011471 0
0.0010387720858 -0.000604012525301 0
0.00128758187485 -0.000639053831648 0
0.00149193308426 -0.000648975414699 0
0.0016625888157 -0.000647234528955 0
0.00180342563639 -0.000642709054137 0
0.00192539700792 -0.000637090807323 0
0.00203015764904 -0.000632304337243 0
0.00212279688184 -0.000629497522362 0
0.00220581071728 -0.00062806633107 0
0.0022812255908 -0.000627509402107 0
0.0023500395996 -0.000559278488028 0
0.00234969764006 -0.000490641120188 0
0.00234877989561 -0.000421993451142 0
0.00234708531156 -0.000353673156546 0
0.00234473911929 -0.000286240679051 0
0.0023419418939 -0.000220013450431 0
0.00233849350252 -0.000155208775945 0
0.0023349641913 -9.21162586821e-05 0
0.00233094123158 -3.0820967762e-05 0
0.00232703041486 2.86343093241e-05 0
0.0023225107442 8.62672251604e-05 0
0.00231770919088 0.000141567167992 0
0.00231284541266 0.000194710908081 0
0.00230709728409 0.000245806279878 0
0.00230091836313 0.000294509970928 0
0.00229301596412 0.000341024663276 0
0.00228398956897 0.00038468206324 0
0.00227250208131 0.000425976775468 0
0.00225886873512 0.000463448635979 0
0.00224106282104 0.00049721335505 0
0.00221965815139 0.000526433735984 0
0.00219515729273 0.000549487070978 0
0.00216406555469 0.000569139644799 0
0.00212724123323 0.000579484624746 0
0.00208166212285 0.000583788289227 0
0.0020295530506 0.000576688894065 0
0.00196499771407 0.000560359297222 0
0.00189230776541 0.000528535412633 0
0.00180592742803 0.000482115601083 0
0.0017103627452 0.000417259023146 0
0.00159962854944 0.000328594089619 0
0.00146907653034 0.000223154194764 0
0.00132537460403 8.64526246309e-05 0
0.00116035077567 -8.19737559431e-05 0
0.000977546560487 -0.00028837107669 0
0.000770628354138 -0.000533691577996 0
0.000538354134327 -0.000831352293898 0
0.000279381784662 -0.00118227844058 0
5.83218231432e-06 -0.00159914349273 0
-0.000303686991978 -0.0020840602679 0
-0.000630011188197 -0.00264761172328 0
-0.000985971398557 -0.00329836270254 0
-0.00136762594891 -0.00405807616312 0
-0.00180292883517 -0.00492820003795 0
-0.00224101265673 -0.00593109758047 0
-0.00271219878942 -0.00708914942867 0
-0.00319289913626 -0.00842204767949 0
-0.00371566618866 -0.00993527130243 0
-0.00422813283663 -0.0116796584465 0
-0.00479241431621 -0.0136773886518 0
-0.00534041300621 -0.0159769578719 0
-0.00588262286901 -0.0186663721674 0
-0.00639976406723 -0.0218211977057 0
-0.00683303925097 -0.0256164946478 0
-0.00697390271699 -0.0301904111202 0
-0.006446036017 -0.0365385364912 0
-0.00551222309237 -0.0429401852563 0
-0.00465537043196 -0.0488421020042 0
-0.00372894578478 -0.0542239760292 0
-0.00293115671442 -0.0591545597716 0
-0.00228602848938 -0.0636261713657 0
-0.00169453797328 -0.0676317231345 0
-0.00122332784517 -0.0711829263344 0
-0.000847115223663 -0.0742591188753 0
-0.000599370946889 -0.0768744420029 0
-0.000425832571576 -0.0790200497927 0
-0.00034526609643 -0.0806921268335 0
-0.000310673382089 -0.0818885004087 0
-0.000345780061981 -0.0825972318212 0
-0.000437362206598 -0.0828403217416 0
-0.000621285110793 -0.0825831069888 0
-0.000709818562488 -0.0818412398987 0
-0.000729209076928 -0.0806215185038 0
-0.000658797137938 -0.0789246722792 0
-0.000520512757087 -0.0767481625873 0
-0.000282840915441 -0.0741061091896 0
6.62897500226e-05 -0.0709925342743 0
0.000512849961394 -0.0674192254013 0
0.00104007776051 -0.0633764760347 0
0.00175178275461 -0.0588913409293 0
0.00246374642 -0.0539136954873 0
0.00337501212399 -0.0484977841685 0
0.00426064737549 -0.0425677690271 0
0.00506167586394 -0.0360786221855 0
0.00543030214594 -0.0300350323547 0
0.00514896214575 -0.0254901601499 0
0.0047219284565 -0.0218745214894 0
0.00415895276604 -0.0188005165188 0
0.00362745406013 -0.0162031997221 0
0.00303595209645 -0.0139494147144 0
0.00241430095239 -0.012020577328 0
0.00185512011347 -0.010343803476 0
0.00131254164427 -0.0089009602676 0
0.00079001944586 -0.00763700065456 0
0.000294826365066 -0.0065498411712 0
-0.000145961858031 -0.00560068898804 0
-0.000572977350475 -0.00478685135439 0
-0.000945897237733 -0.00407853288333 0
-0.00129318196297 -0.0034685234142 0
-0.00160287990278 -0.0029489321071 0
-0.00185756206824 -0.00248667550465 0
-0.00208360448703 -0.00208679672311 0
-0.00226341677467 -0.00171939854841 0
-0.00240854455392 -0.00139272696443 0
-0.00251221296383 -0.00107525351129 0
-0.00258225821263 -0.000768700261645 0
-0.00262256280785 -0.000456857801125 0
-0.00263921436983 -0.000130970832454 0
-0.00264069102732 0.000212013622684 0
-0.00300517595364 0.00057244314211 0
-0.0034249637867 0.000566631996175 0
-0.00391145150133 0.000536345719812 0
-0.00446309550907 0.000464025965177 0
-0.00505540197602 0.00030261510529 0
-0.00562101253017 4.60054271936e-05 0
-0.00614548239637 -0.000313261172196 0
-0.00645322214681 -0.000790279570701 0
-0.0064405693278 -0.00131374532355 0
-0.00595173852216 -0.00183238404272 0
-0.00470261961985 -0.00210063377048 0
-0.0027640499038 -0.00179841896016 0
-0.00799806182495 -0.00369118183702 0
0.00154335161372 8.47922709344e-05 0
-0.01055201329 -0.0178464869739 0
-0.0041444233472 -0.0368121685917 0
0.00709179095629 -0.0306396496157 0
0.0086193365155 -0.0102326766697 0
0.00450009269222 -0.000942876934138 0
0.00247301628023 0.000343565564962 0
-0.005387403837 -0.00147557406762 0
0.00190961707442 -0.000183627694169 0
0.00206767424488 0.000395079020867 0
0.00285541609112 0.000277702694562 0
-0.00787226229725 -0.0103748589225 0
-0.008490826631 -0.0398020646618 0
0.00482453589243 -0.00417601895967 0
0.00151139081203 -0.0522033499813 0
0.00847241311545 -0.02625533602 0
-0.00552637427378 -0.00412228901292 0
0.00199614734333 0.000157370578252 0
0.00223403521137 0.000573687222781 0
-0.00747394944125 -0.0220130279717 0
0.00258163647772 -0.000449598164727 0
-0.00424425104624 -0.05806868206 0
0.00474715949929 -0.0151004685256 0
0.00493195814913 -0.0518070809849 0
0.00221880225444 0.000583566762582 0
-0.00651020249387 -0.0381886657611 0
0.00209262942227 -0.00223742268292 0
-0.000940572777975 -0.0664369933592 0
0.00238102673602 -0.00739662587147 0
0.00527884301749 -0.0423928501697 0
0.00165322873652 0.000175702872754 0
0.00213516102145 0.000360353803796 0
-0.00397653039761 -0.000626833098457 0
0.00211399488238 -0.000382446871819 0
0.00138807240695 -0.000190076937226 0
-0.00691934056907 -0.00146182093846 0
-0.00392568679015 -0.00791016518409 0
0.00210804825668 -3.22923407957e-07 0
-0.00386959984436 -0.00251619883839 0
0.00334457678288 -8.49772414434e-05 0
0.00665153062528 -0.00373951993814 0
0.00190035815497 -0.0302012448533 0
0.00912566149713 -0.0170604238839 0
-0.00829979242437 -0.0241878573494 0
0.00213663245482 0.000253367744459 0
-0.00525813691233 -0.0538463377676 0
0.0016108226235 -0.0652478702842 0
0.00416373268866 -0.0266905779492 0
0.00217605532771 0.000517843378405 0
-0.00951440903052 -0.00806046088197 0
-0.00387837874344 -0.0148356022559 0
0.001310943674 -0.00423437128222 0
-0.00361106976784 -0.00146069892944 0
0.00215151112086 -0.000185953559622 0
0.00215997595577 0.000221075339145 0
-0.00310039321277 -0.00491241143717 0
0.00412933577073 -0.00170968195212 0
-0.00197114254462 -0.0508666768406 0
0.00622273648145 -0.00868988514723 0
0.00790601524618 -0.0364429446613 0
-0.00991074215868 -0.0282128512227 0
-0.00578936569118 -0.00161704160243 0
0.000802087440776 -4.93606577436e-05 0
0.00533699091963 -0.0117736400185 0
0.00328395114985 -0.000731948113711 0
-0.0074615167422 -0.0100475596512 0
-0.00339229115138 -0.0144587124586 0
0.00192382012826 -1.14436995018e-05 0
0.0065968997153 -0.00588937481433 0
0.00215655366116 0.000606329166162 0
-0.00362437784712 -0.0271033577612 0
0.00156305690616 -0.000856543526285 0
-0.00226974363814 -0.0690509950396 0
0.000799824614153 -0.012393185021 0
0.00224162290476 -0.0632933632621 0
0.00174370272572 -7.80562293896e-06 0
-0.00675048216624 -0.00252485411145 0
0.00252053186663 0.000499341787312 0
0.00221442461725 0.000442399152046 0
0.00201752041072 0.00051057933489 0
0.0023647151019 -0.0543345136679 0
-0.00540411567055 -0.000627004894891 0
0.0018785798087 -0.000418864246419 0
-0.00794826789675 -0.00594301589081 0
-0.00767246615703 -0.00389126127815 0
-0.00656147301543 -0.00480904727956 0
0.00167680508015 -7.95208931903e-05 0
0.00186134982886 0.000227169658935 0
-0.00292549972337 -0.0646947578725 0
0.00244186666893 -0.0362097696659 0
-0.00395370120352 -0.0505121960298 0
0.000211561590952 -0.0714483737626 0
0.000163138383292 -0.0201332382961 0
-0.00970854166125 -0.016805855213 0
0.00357510970606 -0.000324695539467 0
-0.00610272265139 -0.0443424836837 0
0.00528518770401 -0.0434876793072 0
0.00830379884321 -0.0159034657396 0
0.00112578438235 5.11398632047e-05 0
0.00219123706777 0.000454914713819 0
-0.0018099677473 -0.0111018276089 0
0.00517433131684 -0.00289678067454 0
0.000168385207662 -0.0134329872404 0
-0.000188017000724 -0.00611472628897 0
0.000567018236429 -0.00287017203817 0
0.00221181470015 0.000113760878368 0
-0.00248678874662 -0.00357004074282 0
0.000936189949116 -0.000229680732893 0
-0.00585346894356 -0.00114420487946 0
0.00207945754117 0.000601325477389 0
0.0021679191534 0.000576257137418 0
-0.00235838964873 -0.0376637176624 0
-0.00100631364154 -0.0202829943297 0
-0.00109815362094 -0.0745262485011 0
0.00220747034722 0.000324651592822 0
0.00294783647118 0.00028344439822 0
0.00160904775993 -0.000387762089853 0
-0.00647473732395 -0.000935486903599 0
0.00115602645127 4.5210556094e-06 0
-0.0016429230164 -0.00693331734732 0
0.00132568729616 -0.0477067695833 0
0.000877850973969 -0.00172168647323 0
-0.000184366040835 -0.0087432093512 0
0.00232536871335 0.000461461528612 0
0.00180734585604 0.000340257389244 0
0.00100736731838 -0.07071042634 0
0.00221238918668 -6.23612015395e-05 0
-0.00294415230942 -0.00214723775679 0
0.00535508144124 -0.0221936481069 0
0.00511229049395 -0.00159183506684 0
-0.00335004847512 -0.000175833327696 0
0.00221772914122 -0.000481408417191 0
0.00564283966867 -0.00305024485132 0
0.000387378152131 -0.0422937087631 0
0.00921256839784 -0.0253373135282 0
-0.00971236684068 -0.0291014961849 0
0.00217814523249 0.000504386963542 0
-0.00747650300072 -0.0151388903807 0
0.00188617809326 0.000282309596046 0
0.0027516239895 1.89171832573e-05 0
-0.00634248377002 -0.0501291090054 0
0.00679067770852 -0.0207376819699 0
0.00347869163436 -0.055073859784 0
0.00280396656791 -0.000242574215561 0
0.00737751411081 -0.0110043188368 0
-0.00658668983921 -0.0150947297424 0
0.00665568690114 -0.00565580151584 0
-0.00317991980274 -0.000881143360632 0
0.00223218661732 -0.0003210502401 0
0.00193226289016 -1.83147778186e-05 0
-0.00549959454235 -0.00239516983219 0
-0.00610169465192 -0.00644361432199 0
0.00198003391549 0.00015948164861 0
0.00770054128507 -0.00601391276968 0
-0.00266130064414 -0.0597792385987 0
-8.77375240466e-05 -0.0276015884519 0
-0.00162907945411 -0.0262863454296 0
0.00202453349779 0.000293009831764 0
-0.00971914904563 -0.0109514659223 0
0.00213379021063 0.000442490009492 0
0.00169262421812 -0.000188892335697 0
-0.00645726292427 -0.0014866402561 0
-0.0055107349416 -0.01104087115 0
0.00219556530144 0.000520815315293 0
-0.00954846559591 -0.0104597686394 0
-0.000498164944103 -0.014757787073 0
0.00336500045079 3.79740557651e-05 0
0.00308292286744 -0.00347237532268 0
-0.00741630847225 -0.0437748430695 0
0.000743884848834 -0.0613415452723 0
0.00662311271229 -0.032068878718 0
0.00279041292433 -0.0107735983594 0
-0.00716549779343 -0.00208767057976 0
0.00125123380163 -4.80795658088e-05 0
0.0036199887119 -0.00131051925728 0
0.00203137303482 -0.000271849193702 0
-0.00452657918584 -0.00108147467487 0
0.00156043921783 0.000146280536136 0
0.0078930040971 -0.0197420762834 0
0.00404587864276 -0.000607502979882 0
-0.00945854425461 -0.0177292742688 0
0.00264517435119 8.52602842571e-05 0
-0.00545140248159 -0.0253043905269 0
0.00876000659083 -0.0106877602195 0
0.00450247859182 -0.0351824419397 0
0.00530856119013 -0.0478503750547 0
0.00224420333892 0.000597754071441 0
0.00209063299912 0.000112464122098 0
-0.00411972657466 -0.00351510096666 0
0.00263592769755 0.000457761973614 0
0.00204188193308 -0.000112819976151 0
-0.00446997244023 -0.00181080877871 0
-0.00724956128876 -0.029931787238 0
0.00242721896567 -0.0011804611893 0
-0.00243764927789 -0.0629379721199 0
0.00320027702241 -0.0106154440616 0
0.0012922538801 -0.000374552410825 0
-0.006639263117 -0.00114901661583 0
0.00113327883826 -0.0627674102166 0
-0.00461533980513 -0.000252331440341 0
0.00201232332212 -0.000488316571667 0
0.00127091035127 -0.000470485937722 0
-0.00202568150299 -0.0707758071221 0
-0.00134139987296 -0.0155469786478 0
-0.00696165990155 -0.00391191849338 0
-0.00882800708212 -0.00594651959088 0
0.00455912151902 -0.00638219418401 0
0.00183811981394 0.000124820608692 0
4.56707228496e-06 -0.00429860379731 0
0.00206662146945 0.000310603106213 0
0.00939515799635 -0.0185076497085 0
-0.00793800871578 -0.0334431619299 0
0.00194844678901 -0.000364481625155 0
-0.00348606299919 -0.0636352453827 0
0.0023338056183 -0.0160026548127 0
0.0019873113092 0.000557844332941 0
0.00309638167191 -0.0422940390398 0
0.000753388204287 1.0323246737e-05 0
0.00222223293081 0.000222372344175 0
-0.00190826836531 -0.00499172879743 0
-0.00192770706822 -0.0452432866741 0
-0.000565438917553 -0.0760551256813 0
0.00165598148799 0.000167494328783 0
0.000507043205611 -0.0737232613799 0
0.00222272732186 0.000382686448369 0
0.00223002534382 -0.000185479429891 0
-0.00303104608266 -0.00149181464833 0
-0.000877653997683 -0.00851973295826 0
0.00232698555368 0.000519030340094 0
0.00223332659898 3.56773460862e-05 0
-0.00248106575368 -0.00287079367206 0
-0.00964212064446 -0.0221098024804 0
0.00358481114429 -0.00078130040605 0
-0.0042133215973 -0.050208930804 0
0.0072186143803 -0.0127538297931 0
0.00648473194233 -0.0431772348398 0
0.000616326894061 -1.70991728418e-05 0
-0.00431688126549 -0.00165707577602 0
0.00219180310381 0.000569445963133 0
0.0035557861337 -0.0559568445394 0
-0.00536165591095 -0.0196670161815 0
0.00276074117759 -0.00532817262465 0
-0.000658595781978 -0.0572240401656 0
0.00750688083654 -0.036081538452 0
-0.00881426311716 -0.0352308758931 0
-0.00342786602021 -0.000787646862261 0
0.000445735610443 -8.60449896339e-05 0
-0.00483909250223 -0.0025986369911 0
0.00209625714067 0.000280472569619 0
-0.00464864095442 -0.00603747227521 0
0.00396504396574 -0.000403270842479 0
0.00359513584942 -0.0023599585112 0
0.00304410843006 -0.0599348922258 0
-0.0102600538779 -0.0125480941219 0
0.00219379543304 1.58803620657e-05 0
-0.00481207285027 -0.0575919016104 0
0.00401628181957 -0.0205333079818 0
0.00178852696454 -0.000283384063589 0
-0.00594852602716 -0.00112962911292 0
0.00212077060895 0.000600680983168 0
0.00207459292962 0.00039195098606 0
0.00154170280828 -7.57650844624e-05 0
-0.00711939050954 -0.00203853014613 0
-0.000509635124044 -0.0276197449004 0
0.00111221489253 -0.000822406352223 0
-0.00176847217775 -0.0729422914415 0
0.000992160601536 -0.0669179259234 0
-0.00120319229375 -0.0128027212077 0
0.00768137575284 -0.00648978399638 0
0.00239496421541 0.000561070222874 0
0.00171749223755 -0.000489807066978 0
-0.00606982073435 -0.000596774052459 0
0.00558771926121 -0.00214003508725 0
0.0012179810967 -0.000154130120103 0
0.00206343700056 0.000379069872003 0
0.00413662749616 -0.00392949293211 0
0.00594347935653 -0.00287538772117 0
-0.00292852174963 -0.00663359248114 0
0.00196796389409 -0.0211553245329 0
-0.00747378891714 -0.00309467642408 0
-0.00125986887013 -0.0344560406275 0
-0.00850630039357 -0.00818578756406 0
0.00254774482485 0.000325234854063 0
-0.00506826177848 -0.00468853368048 0
-0.0035856375861 -0.00101490373882 0
0.000503563651425 -0.00023642511408 0
0.00224430265296 -0.000405967651514 0
-0.00316715887784 -0.000515530444197 0
0.00208207871978 0.000364346480635 0
0.0044398564874 -0.00296617773482 0
-0.00126386453344 -0.00929888983444 0
-0.00399506263632 -2.73595682515e-05 0
0.00211177013437 -0.000522404839306 0
-0.00473061197622 -0.00651094094233 0
0.00121631549119 4.23758645161e-05 0
-0.00847681473372 -0.0060560703568 0
0.00442466920935 -0.00687507799583 0
0.00210544861319 -0.000417685389091 0
-0.0104808240574 -0.0234677130858 0
-0.00609335179506 -0.00804888428213 0
0.00476739704201 -0.00143598574637 0
0.00829815152212 -0.0304611739762 0
0.00185655599578 0.000480801585156 0
0.000119367031545 -0.0580215412123 0
0.00201225062441 -0.00319826232315 0
0.00182356213348 -9.36643207736e-05 0
-0.00607035878916 -0.00192744183438 0
0.000988268021133 -3.78826266772e-05 0
0.00767048538522 -0.00804689853611 0
-0.000936758435052 -0.0442611693847 0
-0.00249727659938 -0.0406911900209 0
-0.000213894257666 -0.0511400121105 0
0.00836259426601 -0.032354077438 0
-0.00946494599918 -0.0336547038139 0
0.00458280817432 -0.0027067603371 0
0.000187605054477 -0.00221925599722 0
-0.0014562682759 -0.00762475683902 0
0.00124050194473 7.53758737095e-05 0
0.00213051767504 -0.000283226983662 0
-0.00382693152252 -0.00102541787487 0
-0.00171962021696 -0.0566583343277 0
-0.00190985840781 -0.0654874080513 0
-0.000568737418099 -0.0334400941472 0
-0.00195094021794 -0.0227665369764 0
-0.00670057169461 -0.00143054849099 0
0.00116672376895 -0.000160310215941 0
0.00244590373841 0.000456036744796 0
0.00202729428027 -0.000377835083408 0
-0.00453926067736 -0.000675726965579 0
0.00196412416912 0.000298800625421 0
0.00128462214056 -0.00013313336191 0
-0.000173462415496 -0.0788361633398 0
-0.00624912230591 -0.0368263796717 0
0.0091285577596 -0.0143186423949 0
0.00221422489517 0.000481201084579 0
0.00504023863188 -0.00831223033669 0
8.139011134e-05 -0.0124533639875 0
-0.00313833638771 8.95814001522e-05 0
0.00225647807455 -0.000535611608057 0
0.0020404042753 -0.0593517860247 0
0.00658624716878 -0.026023930711 0
-0.00688843017472 -0.0481963090454 0
-0.00599260067709 -0.00325442018264 0
0.0017465847067 0.000208315200544 0
0.00193847151024 7.07961574859e-05 0
0.00212879459148 -0.00010588204454 0
-0.00373363778482 -0.00185662458219 0
0.0021582503541 0.00041884830532 0
0.00218871750276 0.000545991687545 0
0.00098417116418 -0.0172236401613 0
0.0026620372666 0.000392127004553 0
0.00314956084226 3.30142237832e-05 0
-0.00751325419929 -0.0424511953463 0
0.00371297279714 -0.0475193064872 0
0.00852876370384 -0.0207900776884 0
-0.00884239148191 -0.013416003144 0
0.00680651465475 -0.0428885487086 0
-0.0104401622386 -0.0196910047463 0
0.0033336616891 -0.00121674835948 0
-0.00908733653071 -0.0273468414523 0
-0.00278687956394 -0.0560475271451 0
0.00203328466886 4.34303829362e-05 0
0.0041623839882 -0.000841140814068 0
-0.00471370473029 -0.00281432471766 0
-0.00453074883716 -0.0426618632315 0
0.00682115010576 -0.0370343033321 0
0.00823486330387 -0.0117732261943 0
0.00221099608301 0.000534438394157 0
0.00239234184283 0.00054352929995 0
-0.00601571025216 -0.0441346221242 0
-8.51014938826e-05 -0.067438216203 0
0.00502989560272 -0.0368498272883 0
-0.000331579663525 -0.00356514696405 0
-0.000891197143746 -0.0052518530415 0
0.00310219493771 -0.000321231988931 0
-0.00540782026542 -0.0512317034845 0
0.00682019444543 -0.0162304059005 0
0.00505176063354 -0.0494013117686 0
0.00226029832274 0.000172667036251 0
-0.00153856328361 -0.00433669186127 0
-0.00347541239139 -0.00968787802669 0
0.00272582041405 0.000253234761902 0
0.00168843421871 -0.00135700418278 0
0.00134904589425 -0.00995823720549 0
0.00223740938181 0.000530522300768 0
0.0022533841328 0.000270513905144 0
-0.00196704992183 -0.068905725523 0
-0.00187578340615 -0.0185862661777 0
0.00168421545423 6.13726567538e-05 0
-0.00740284153843 -0.00321792376281 0
0.00872394352412 -0.0239106483043 0
-0.00517236552476 -0.000273254046649 0