# vtk DataFile Version 2.0
Generated with Solid Solver
ASCII
DATASET UNSTRUCTURED_GRID
POINTS 1163 float 
0.0 3.5 0.0
2.2 3.5 0.0
2.2 4.0 0.0
0.0 4.0 0.0
0.0687499999999 3.5 0.0
0.1375 3.5 0.0
0.20625 3.5 0.0
0.275 3.5 0.0
0.343749999999 3.5 0.0
0.412499999999 3.5 0.0
0.481249999999 3.5 0.0
0.549999999999 3.5 0.0
0.618749999998 3.5 0.0
0.687499999998 3.5 0.0
0.756249999998 3.5 0.0
0.824999999998 3.5 0.0
0.893749999998 3.5 0.0
0.962499999997 3.5 0.0
1.03125 3.5 0.0
1.1 3.5 0.0
1.16875 3.5 0.0
1.2375 3.5 0.0
1.30625 3.5 0.0
1.375 3.5 0.0
1.44375 3.5 0.0
1.5125 3.5 0.0
1.58125 3.5 0.0
1.65 3.5 0.0
1.71875 3.5 0.0
1.7875 3.5 0.0
1.85625 3.5 0.0
1.925 3.5 0.0
1.99375 3.5 0.0
2.0625 3.5 0.0
2.13125 3.5 0.0
2.2 3.56430812579 0.0
2.2 3.6227083524 0.0
2.2 3.67574343203 0.0
2.2 3.72390623714 0.0
2.2 3.76764438299 0.0
2.2 3.80736436348 0.0
2.2 3.84343531161 0.0
2.2 3.87619247056 0.0
2.2 3.90594026646 0.0
2.2 3.93295517223 0.0
2.2 3.9574882542 0.0
2.2 3.97976750927 0.0
2.18000003888 4.0 0.0
2.15999995974 4.0 0.0
2.13999995594 4.0 0.0
2.12000003893 4.0 0.0
2.0999999813 4.0 0.0
2.07999993507 4.0 0.0
2.06000001965 4.0 0.0
2.04000002354 4.0 0.0
2.01999993997 4.0 0.0
1.99999999426 4.0 0.0
1.98000004623 4.0 0.0
1.95999996625 4.0 0.0
1.93999996787 4.0 0.0
1.92000005069 4.0 0.0
1.90000001292 4.0 0.0
1.87999994967 4.0 0.0
1.86000003245 4.0 0.0
1.84000003166 4.0 0.0
1.81999995194 4.0 0.0
1.80000002065 4.0 0.0
1.78000005962 4.0 0.0
1.75999997703 4.0 0.0
1.73999998149 4.0 0.0
1.72000006236 4.0 0.0
1.70000000651 4.0 0.0
1.67999995967 4.0 0.0
1.66000004242 4.0 0.0
1.64000004304 4.0 0.0
1.61999996152 4.0 0.0
1.6000000096 4.0 0.0
1.58000006667 4.0 0.0
1.55999998704 4.0 0.0
1.53999998381 4.0 0.0
1.52000006764 4.0 0.0
1.5000000299 4.0 0.0
1.47999996242 4.0 0.0
1.46000004337 4.0 0.0
1.4400000454 4.0 0.0
1.41999996386 4.0 0.0
1.40000002834 4.0 0.0
1.38000006734 4.0 0.0
1.35999998576 4.0 0.0
1.33999998537 4.0 0.0
1.32000006658 4.0 0.0
1.30000001585 4.0 0.0
1.27999996279 4.0 0.0
1.26000004759 4.0 0.0
1.24000004493 4.0 0.0
1.2199999616 4.0 0.0
1.20000000906 4.0 0.0
1.18000006792 4.0 0.0
1.15999998616 4.0 0.0
1.13999999119 4.0 0.0
1.12000007157 4.0 0.0
1.1 4.0 0.0
1.07999992843 4.0 0.0
1.06000000881 4.0 0.0
1.04000001384 4.0 0.0
1.01999993209 4.0 0.0
0.999999990948 4.0 0.0
0.98000003841 4.0 0.0
0.959999955072 4.0 0.0
0.939999952416 4.0 0.0
0.920000037214 4.0 0.0
0.899999984154 4.0 0.0
0.879999933427 4.0 0.0
0.860000014636 4.0 0.0
0.840000014246 4.0 0.0
0.819999932662 4.0 0.0
0.79999997166 4.0 0.0
0.780000036145 4.0 0.0
0.759999954604 4.0 0.0
0.73999995663 4.0 0.0
0.72000003758 4.0 0.0
0.699999970103 4.0 0.0
0.679999932361 4.0 0.0
0.660000016189 4.0 0.0
0.640000012962 4.0 0.0
0.61999993333 4.0 0.0
0.599999990406 4.0 0.0
0.58000003848 4.0 0.0
0.559999956964 4.0 0.0
0.539999957581 4.0 0.0
0.520000040329 4.0 0.0
0.499999993489 4.0 0.0
0.479999937647 4.0 0.0
0.460000018512 4.0 0.0
0.440000022972 4.0 0.0
0.419999940378 4.0 0.0
0.399999979352 4.0 0.0
0.380000048063 4.0 0.0
0.359999968347 4.0 0.0
0.339999967553 4.0 0.0
0.320000050328 4.0 0.0
0.299999987077 4.0 0.0
0.279999949312 4.0 0.0
0.260000032129 4.0 0.0
0.240000033752 4.0 0.0
0.219999953776 4.0 0.0
0.200000005737 4.0 0.0
0.180000060031 4.0 0.0
0.159999976465 4.0 0.0
0.139999980354 4.0 0.0
0.120000064926 4.0 0.0
0.100000018697 4.0 0.0
0.0799999610675 4.0 0.0
0.0600000440571 4.0 0.0
0.0400000402596 4.0 0.0
0.0199999611169 4.0 0.0
0.0 3.97976750927 0.0
0.0 3.9574882542 0.0
0.0 3.93295517223 0.0
0.0 3.90594026646 0.0
0.0 3.87619247056 0.0
0.0 3.84343531161 0.0
0.0 3.80736436348 0.0
0.0 3.76764438299 0.0
0.0 3.72390623714 0.0
0.0 3.67574343203 0.0
0.0 3.6227083524 0.0
0.0 3.56430812579 0.0
0.249757963562 3.75212589829 0.0
1.94999996706 3.74954522137 0.0
0.488710285893 3.75947702441 0.0
0.726520490699 3.7655965719 0.0
0.967283134849 3.7597072979 0.0
1.20619032017 3.75831098673 0.0
1.45842774915 3.76733088374 0.0
1.69012076678 3.7622332834 0.0
0.130754044069 3.86878249167 0.0
2.06924595593 3.86878249167 0.0
1.8299999918 3.84622455633 0.0
1.56816462369 3.85034872999 0.0
0.369913859351 3.84868157925 0.0
0.608733620231 3.84706187144 0.0
1.33069778866 3.84790908234 0.0
0.84323446252 3.84762979148 0.0
1.08873170817 3.84705870913 0.0
0.250539365135 3.87785524304 0.0
1.94967747948 3.87849609822 0.0
1.73218750075 3.8916046151 0.0
0.468661874066 3.89189322974 0.0
1.47574192429 3.89639134117 0.0
0.704258110321 3.8963912684 0.0
1.18331258449 3.8976320365 0.0
0.949999953744 3.89208018478 0.0
1.64795374468 3.91749779939 0.0
0.548928463645 3.91905583847 0.0
1.38619509199 3.91928594438 0.0
0.788926872841 3.91906062101 0.0
1.27071160784 3.91777932845 0.0
1.02999997296 3.91685174433 0.0
1.81733541416 3.69950870754 0.0
1.86999999106 3.91823503401 0.0
0.071252620538 3.93011431841 0.0
2.12874737946 3.93011431841 0.0
2.07400690796 3.74293885365 0.0
0.125993092043 3.74293885365 0.0
0.32995676804 3.92118147353 0.0
2.00999996712 3.92542383197 0.0
0.190000032884 3.92542383197 0.0
1.56698738743 3.72218882919 0.0
1.33000000474 3.72531695685 0.0
0.848014510843 3.71986098938 0.0
1.09024665585 3.72285801424 0.0
0.610276609989 3.72290563624 0.0
1.54999998543 3.92414142844 0.0
0.629999973146 3.92414137652 0.0
0.869999974031 3.92414141814 0.0
1.11000003579 3.92414141267 0.0
1.79030638642 3.92649353654 0.0
0.370434802927 3.72513294336 0.0
0.410903135411 3.92892991244 0.0
1.33000002597 3.93737911571 0.0
0.129927648482 3.94112154503 0.0
2.07007235152 3.94112154503 0.0
1.93000000928 3.93875927586 0.0
0.26999999072 3.93875927586 0.0
1.40966706061 3.83880068991 0.0
0.770332962441 3.83880062149 0.0
1.24904900022 3.84293377683 0.0
1.01033287484 3.83880060723 0.0
0.530342681434 3.83880307444 0.0
0.189895273961 3.63486992823 0.0
2.00989835291 3.62845703161 0.0
0.998888153878 3.61665036233 0.0
1.47894673873 3.61675180774 0.0
0.51733910646 3.62937665489 0.0
0.705112628302 3.618743723 0.0
1.66672137035 3.63168728155 0.0
1.18508242495 3.61871739348 0.0
1.71000003443 3.94408608591 0.0
0.489999965568 3.94463856597 0.0
1.44983363802 3.94422347836 0.0
0.729999997105 3.94465012565 0.0
1.21016639734 3.94422345842 0.0
0.928621800545 3.94440037102 0.0
2.00626203014 3.81543543551 0.0
0.193627962274 3.81528928332 0.0
1.66628164144 3.83559795895 0.0
1.75661718781 3.81065958113 0.0
1.61143779865 3.94859227761 0.0
0.991673865748 3.95161238438 0.0
0.0604617941233 3.86281264864 0.0
2.13953820588 3.86281264865 0.0
0.300965570716 3.8114148258 0.0
0.2970894797 3.66361086085 0.0
0.398842167194 3.60449226805 0.0
1.51000004877 3.95218393067 0.0
1.90135619383 3.81213273629 0.0
0.669405272842 3.95495208979 0.0
1.07142780558 3.94866325309 0.0
0.592085094025 3.94901139323 0.0
0.831051660929 3.94633985879 0.0
1.14940528892 3.9549521224 0.0
0.44409344258 3.82719938178 0.0
1.49646539728 3.82376850413 0.0
0.683434082651 3.82631713605 0.0
0.92337834777 3.8234861632 0.0
1.16343437877 3.82631615351 0.0
1.90749084149 3.65350700271 0.0
1.8278758005 3.95083911942 0.0
0.37243073327 3.95235211027 0.0
1.29345662549 3.60569899261 0.0
0.813407949226 3.60572380122 0.0
1.29317153636 3.96216077293 0.0
1.367704599 3.96055764734 0.0
1.97071235041 3.96038324024 0.0
0.22928764959 3.96038324024 0.0
2.10610581798 3.66047411138 0.0
0.0938941820177 3.66047411138 0.0
1.67000000105 3.95862953468 0.0
1.74869816704 3.96079301687 0.0
0.531976761939 3.96138655466 0.0
0.451361042387 3.96112774725 0.0
0.771976832233 3.96138887156 0.0
1.88843481911 3.95881554986 0.0
1.61277513709 3.78538823015 0.0
2.13311214501 3.79435403671 0.0
0.0668878549946 3.79435403671 0.0
1.76678797151 3.60286552601 0.0
0.311702446283 3.9611157379 0.0
1.02877762737 3.96159282031 0.0
1.40830122607 3.96143175203 0.0
1.25214210333 3.957355862 0.0
1.59476493393 3.9048774062 0.0
1.56950979124 3.96148017208 0.0
0.890017020275 3.96125792969 0.0
2.03089110475 3.96040268709 0.0
0.169108895255 3.96040268709 0.0
0.939722125942 3.68539157065 0.0
1.41686981874 3.69192854313 0.0
0.0426348006718 3.96101756902 0.0
2.15736519933 3.96101756902 0.0
1.36077308019 3.79177204211 0.0
0.817982383499 3.78962669257 0.0
1.05834720932 3.78780184893 0.0
0.578349529346 3.78781530011 0.0
1.77992711518 3.87652731382 0.0
0.417982153133 3.87594990465 0.0
1.84363633012 3.77741329286 0.0
1.52244994479 3.87704541475 0.0
0.657426528912 3.87734838249 0.0
1.13742651778 3.87734834025 0.0
0.898116026439 3.8800466833 0.0
1.56984259435 3.64465823131 0.0
1.08983016076 3.6446495206 0.0
0.609942357805 3.64483976081 0.0
1.29451769374 3.79627773068 0.0
0.0893439668432 3.96574839433 0.0
2.11065603316 3.96574839433 0.0
2.01422398896 3.86980625824 0.0
0.185776011038 3.86980625824 0.0
0.305957237756 3.87340573745 0.0
1.72977480551 3.68665973332 0.0
1.25418096296 3.69351129461 0.0
0.629999973146 3.96272981435 0.0
1.11000003579 3.96272983221 0.0
0.772975283819 3.69297597031 0.0
1.89089074715 3.86951346173 0.0
0.445448577516 3.69456159386 0.0
1.82621986864 3.89678318705 0.0
2.07135424223 3.81165410377 0.0
0.128645757768 3.81165410377 0.0
0.373320289473 3.89968791662 0.0
1.79000004014 3.96541718891 0.0
0.383302070088 3.78976392323 0.0
0.409457623385 3.96502881851 0.0
1.55531527123 3.78787141386 0.0
1.34861332978 3.89383287415 0.0
0.593245985735 3.89483466551 0.0
0.833245353375 3.89479604398 0.0
1.0732444554 3.8948349405 0.0
0.911896623122 3.59194725763 0.0
0.187580554011 3.70699710313 0.0
2.01241944599 3.70699710313 0.0
1.39201907571 3.59233063354 0.0
2.09635520798 3.90516200201 0.0
0.103644792024 3.90516200201 0.0
1.89086147526 3.72621461413 0.0
1.02102684616 3.70044819701 0.0
1.49813234221 3.70194667869 0.0
0.53965669049 3.70593418829 0.0
1.63719578665 3.69772473547 0.0
0.685447658936 3.70127585046 0.0
1.16541741817 3.70128744764 0.0
0.901649266036 3.76287226775 0.0
0.992351690321 3.90662993531 0.0
1.69131894868 3.90657323657 0.0
1.9699561555 3.91599371502 0.0
0.230043844497 3.91599371502 0.0
1.61980840676 3.85005402918 0.0
2.04685187594 3.90639759008 0.0
0.153148124058 3.90639759008 0.0
0.512139828486 3.90538520837 0.0
1.43057458921 3.90702644399 0.0
0.749149996349 3.90689574876 0.0
[...]
POINT_DATA 1163
VECTORS Displacement float
0.0 0.0 0
0.0 0.0 0
0.0116153166642 -0.00156179986731 0
-0.00871164876141 -0.00200974898275 0
0.0 0.0 0
0.0 0.0 0
0.0 0.0 0
0.0 0.0 0
0.0 0.0 0
0.0 0.0 0
0.0 0.0 0
0.0 0.0 0
0.0 0.0 0
0.0 0.0 0
0.0 0.0 0
0.0 0.0 0
0.0 0.0 0
0.0 0.0 0
0.0 0.0 0
0.0 0.0 0
0.0 0.0 0
0.0 0.0 0
0.0 0.0 0
0.0 0.0 0
0.0 0.0 0
0.0 0.0 0
0.0 0.0 0
0.0 0.0 0
0.0 0.0 0
0.0 0.0 0
0.0 0.0 0
0.0 0.0 0
0.0 0.0 0
0.0 0.0 0
0.0 0.0 0
0.00540401006901 -0.00391182796463 0
0.00936452072981 -0.00494990875486 0
0.0121937272088 -0.0048763769854 0
0.0137350555286 -0.00428024421408 0
0.0144324297184 -0.00358152476167 0
0.0145489496469 -0.00290109467266 0
0.014245513599 -0.00237471384295 0
0.0138164457355 -0.00198741374955 0
0.0132860477976 -0.0017371892478 0
0.0127718649803 -0.00162133092594 0
0.012318777765 -0.00157130239691 0
0.0119379049464 -0.00156009664477 0
0.0116170597929 -0.001876250029 0
0.0116130417377 -0.00216593984735 0
0.0115846953196 -0.00243192277635 0
0.0115190469132 -0.00268043639163 0
0.0114083580074 -0.00292702543524 0
0.0112485068762 -0.00319616520487 0
0.0110273484842 -0.00348749530502 0
0.0107583599786 -0.00384648237636 0
0.010423130935 -0.00426377250353 0
0.0100508649728 -0.00478050780083 0
0.00960187036243 -0.00539099675361 0
0.00910307237579 -0.00614506133029 0
0.00857560134239 -0.00704980990378 0
0.00797726460755 -0.00811791962458 0
0.00736952895562 -0.00938364420187 0
0.00668677172452 -0.0108580685206 0
0.00597362777264 -0.0125966167767 0
0.0052428457661 -0.0145983123939 0
0.00449533558463 -0.0169420266363 0
0.00367859019286 -0.0196532593863 0
0.00292556690387 -0.0228077646982 0
0.00226236727881 -0.0264259460787 0
0.0015718162292 -0.0306814478965 0
0.00107505924989 -0.0356151766185 0
0.000714457891539 -0.0416703397141 0
0.00106532194883 -0.0489248557888 0
0.00273451813038 -0.0588292094289 0
0.00442578976451 -0.0680342060896 0
0.00610394106879 -0.0768460204962 0
0.00746942480124 -0.085065289902 0
0.00864283147633 -0.0928374695221 0
0.00971740102162 -0.100126655056 0
0.0104621994089 -0.107000889943 0
0.0109497975957 -0.113412728078 0
0.0111712176647 -0.119354292181 0
0.0111628393789 -0.12488052354 0
0.0109094044411 -0.129938968089 0
0.0104610689308 -0.134489643229 0
0.0097901298495 -0.138548337281 0
0.008924062774 -0.142098930531 0
0.00790376731408 -0.14512188522 0
0.00673800684232 -0.147618311461 0
0.0054250548949 -0.149577621841 0
0.00397858962344 -0.150988389412 0
0.00243895046144 -0.151836491519 0
0.00075497347951 -0.152090354326 0
-0.0008180724148 -0.151850567664 0
-0.00233022007689 -0.151054093136 0
-0.00372221091887 -0.149688699599 0
-0.00501362848571 -0.147770827792 0
-0.00616954822507 -0.145312399489 0
-0.00716266851756 -0.142326878736 0
-0.00798519992293 -0.13882252751 0
-0.0086320582879 -0.134810888105 0
-0.00907714691321 -0.130302672607 0
-0.00926611484157 -0.125315580014 0
-0.00924425337538 -0.11984975651 0
-0.00899739791818 -0.113899510058 0
-0.00843348759675 -0.107548062157 0
-0.00770038531487 -0.100739103482 0
-0.00673465684079 -0.0934753313733 0
-0.00543132654065 -0.0857858970164 0
-0.00388754152433 -0.0776810608014 0
-0.00213049129873 -0.0690197559955 0
-0.000362482201364 -0.0599223251505 0
0.00141001220934 -0.0501829681537 0
0.00212714997317 -0.0423672856145 0
0.00208515148156 -0.0360364081739 0
0.00173838904915 -0.0308081477293 0
0.00123333781907 -0.0263586327815 0
0.000614896431115 -0.0225099813449 0
-8.36705858685e-06 -0.0192026682275 0
-0.000594395122701 -0.0163186645458 0
-0.00123709409241 -0.0138042245204 0
-0.00184398204129 -0.0116261225426 0
-0.00243207654049 -0.00973723058336 0
-0.00299950824963 -0.00808566890484 0
-0.00353316543584 -0.0066497684165 0
-0.00401242382993 -0.00539902909081 0
-0.00448803183798 -0.004325329317 0
-0.00491375552239 -0.00340108700517 0
-0.00531448851502 -0.00262530920341 0
-0.00566797544424 -0.00196112415987 0
-0.00600312714208 -0.00139818378076 0
-0.00629863761472 -0.000923623209424 0
-0.00658208533999 -0.000539186022672 0
-0.00682686686258 -0.000223731180947 0
-0.0070519333686 1.74853888158e-05 0
-0.00724533406396 0.000212227670829 0
-0.00742890984811 0.000352120882758 0
-0.00759738845352 0.000445559003868 0
-0.00774128301017 0.000501487510639 0
-0.0078734112162 0.000517209127107 0
-0.0079903402326 0.00050467316777 0
-0.0080979117669 0.000461788049794 0
-0.00819041472239 0.000395737754282 0
-0.00827732866218 0.000304700424667 0
-0.00835245363149 0.000194684435334 0
-0.00842199204378 6.49365362496e-05 0
-0.00848431891926 -8.34206298891e-05 0
-0.00853588721663 -0.000244453087146 0
-0.00858278885857 -0.000419414549261 0
-0.0086209903615 -0.000603401001689 0
-0.00865328672263 -0.000797972351939 0
-0.00867729079264 -0.000997373949417 0
-0.0086946988043 -0.00120152753056 0
-0.00870562136792 -0.00140703788426 0
-0.00871070756935 -0.00161107419136 0
-0.00871182805224 -0.00181228371123 0
-0.0085127586787 -0.00200958009196 0
-0.00829750671364 -0.00201198034844 0
-0.00806455828154 -0.0020206765041 0
-0.00780745895505 -0.0020399223493 0
-0.00751451828437 -0.00207914603751 0
-0.00715961065066 -0.00213628843986 0
-0.00673418609206 -0.00220692337494 0
-0.00617590304771 -0.00228827085512 0
-0.00545424060897 -0.00234068564326 0
-0.00450816394242 -0.00231050958185 0
-0.0032615370818 -0.00209368697902 0
-0.00178963134993 -0.0015077923453 0
-0.00667632481947 1.22863489732e-05 0
0.0167208819247 -0.00558915073831 0
-0.0102415991263 -0.00113731066641 0
-0.0172939690781 -0.012583245773 0
-0.0199074062049 -0.0442736455668 0
-0.00546592502609 -0.0683747003188 0
0.0152155357384 -0.0631523218171 0
0.0228100771628 -0.0295827816337 0
-0.00750267789333 -0.000678063244313 0
0.0142457133177 -0.00319753297561 0
0.01844586385 -0.014847664251 0
0.0212300256155 -0.0659692744168 0
-0.00839178866755 0.000405831281459 0
-0.0119261166 -0.00467286826831 0
0.00539086517794 -0.0973694047324 0
-0.0193367934697 -0.0325494256603 0
-0.0144387028785 -0.0836095128283 0
-0.00779530279073 0.000265810474019 0
0.0147263155856 -0.00617272324362 0
0.0187554360478 -0.031226962487 0
-0.008763106476 -0.000274104106009 0
0.0157210014886 -0.0962914909182 0
-0.0116244449889 -0.0118107978227 0
-0.00710954955367 -0.110804738705 0
-0.0182790888927 -0.0641396557657 0
0.0186700394861 -0.0558527214777 0
-0.00847558893473 -0.00205498159903 0
0.00943558115261 -0.116781999016 0
-0.0118303832054 -0.0239284485363 0
0.000151903253271 -0.122145128547 0
-0.0151621700665 -0.090466493839 0
0.0187295444633 -0.0116500216825 0
0.013275674773 -0.0112684473067 0
-0.00804096456012 -0.00128752237929 0
0.0128410702958 -0.0025577243513 0
0.0147239714512 -0.00308417381011 0
-0.00589397874184 -0.000740291558057 0
-0.00802514154486 0.00057276493954 0
0.0127029172402 -0.00423620411562 0
-0.00798795310622 -0.000129348071894 0
0.0196669070863 -0.0402919777334 0
0.00481869827655 -0.0591876237479 0
-0.0196182738468 -0.0229042333926 0
-0.0133872905338 -0.0507210623398 0
-0.0132074019786 -0.00459047740188 0
0.0173700800139 -0.0865458511181 0
-0.00863431511252 -0.0057468501137 0
-0.0142971320149 -0.0439433431843 0
-0.0114780161295 -0.109408535497 0
0.0135631570268 -0.020775552142 0
-0.00768562978552 -0.000129215992055 0
-0.00803299924638 0.000377326186025 0
0.00495867917537 -0.127708427993 0
-0.00812154977294 -0.000681295802367 0
0.0124357880755 -0.00319819517764 0
0.0118345792878 -0.00719748155368 0
-0.00803373284279 0.000400903892837 0
0.0119699668799 -0.0887082607262 0
-0.0172594824724 -0.019536049833 0
-0.00184857214235 -0.0964020074752 0
-0.0186207565319 -0.0676584858695 0
-0.010513778157 -0.00175381879824 0
-0.00383750044189 -0.000314925362801 0
0.0108386572715 -0.00263166108996 0
-0.0121565233716 -0.0208103002632 0
0.0103306883338 -0.0246111458634 0
-0.00797217684769 -0.00163122151483 0
-0.0117205051087 -0.00606603153721 0
0.0156853835152 -0.0166614342514 0
-0.00484083122984 -0.0285014566848 0
0.0134579876258 -0.0381265083555 0
-0.00768580750379 -0.000577806589471 0
0.0127594501958 -0.115168746838 0
-0.0076155852117 -0.0148112992847 0
-0.00462883712357 -0.128887475313 0
-0.013321064957 -0.0656153842732 0
0.0156505668335 -0.00422322048302 0
-0.00711274362151 -0.000168591657755 0
0.0229676844482 -0.0417520496025 0
0.0217574535089 -0.0233672717536 0
0.0154802176623 -0.0724530945022 0
-0.0130746603107 -0.0878539335781 0
-0.00739709216554 -0.00142471944912 0
0.0141701454244 -0.00265358292545 0
-0.00771917265247 0.00030070602639 0
-0.00546538649255 -0.000171242958397 0
-0.00495489124056 -0.000571187063804 0
0.0145381942868 -0.103974058923 0
0.0176510315644 -0.00853436442509 0
-0.0065079131642 -0.00859810616108 0
-0.012164992858 -0.108744790006 0
-0.00719903983261 -0.00372861814576 0
-0.00958794151752 -0.0334976953798 0
-0.00852697853555 -0.125546024834 0
-0.00930493839578 -0.000175405433441 0
0.0181483164246 -0.0730976572326 0
-0.0147401465646 -0.00964555452966 0
-0.0209260265004 -0.0469903005531 0
-0.0091723846067 -0.0863756947201 0
0.0142556253361 -0.00545561980095 0
0.0104896249695 -0.0156401044031 0
-0.00787715416919 0.00054763471262 0
0.00102866808725 -0.0259632893137 0
-0.0125087936881 -0.00967994027226 0
0.0019322269665 -0.13790460451 0
0.00759919515831 -0.13277375982 0
0.0110466800903 -0.00548260634666 0
-0.00816422225897 0.000160027148701 0
0.0116697349642 -0.0026313846992 0
-0.00414998546403 -0.000887869194751 0
0.012660993074 -0.0520291896187 0
0.00951240577649 -0.0285305415852 0
-0.00701320429778 -0.00156475295896 0
-0.00750201850598 -6.2580929923e-06 0
-0.00578974176034 -0.0209403729199 0
0.0101536086806 -0.00987842402971 0
0.0227413034349 -0.0451312453292 0
0.0148387582621 -0.00296902293118 0
-0.00659632421978 -0.00136886216124 0
0.0128949388225 -0.00844201110946 0
-0.00800020916215 0.000540740416989 0
-0.0121407964266 -0.101164039202 0
0.0101546792859 -0.127822362364 0
-0.00135276583916 -0.135885189614 0
0.0196329542055 -0.0700486047912 0
0.014250611492 -0.0889824463182 0
-0.00955649551187 -0.053013663519 0
0.0116646802742 -0.00385767572932 0
-0.00824590416109 -0.000315212911564 0
-0.0178635862888 -0.0283894142037 0
0.0105548346416 -0.0461696633876 0
-0.0083301151441 -0.00158399335586 0
0.0122467131134 -0.00220262960578 0
0.0079088860186 -0.0780730117993 0
-0.0200087525234 -0.0245052312025 0
-0.0164457703293 -0.0635820685903 0
-0.0123795331501 -0.00343695671685 0
0.0183296303679 -0.0219260107264 0
-0.00862315394213 0.000244053245377 0
0.0195794442313 -0.0122343433403 0
0.0186629749805 -0.0818064232465 0
-0.0117222331549 -0.00769427596566 0
-0.0107733657861 -0.0992246609559 0
-0.0188892270425 -0.0482930073303 0
0.0153208621794 -0.0253267929763 0
-0.0105843769082 -0.0316030795863 0
-0.0107959755332 -0.00369057025309 0
0.00214879105677 -0.0816770303965 0
-0.00835838958507 -0.0010982204602 0
0.012045158628 -0.00274656132023 0
0.0144924285738 -0.00408496158428 0
-0.00759003473947 -0.000182108305625 0
-0.00798150235378 0.000477750246972 0
0.0195985334336 -0.0177650860473 0
-0.00136937846779 -0.050397562406 0
-0.00618052219473 -0.0058008037209 0
-0.0102354147777 -0.121123505106 0
-0.0173082968013 -0.0135431304682 0
0.0159644345485 -0.00949589985439 0
-0.00850936754422 -0.000781543061061 0
0.015574449822 -0.0157052869616 0
0.0150759494208 -0.00319161731497 0
-0.00689157976032 -0.000710596493659 0
-0.00819572370831 0.000518431777961 0
0.00856699526236 -0.0209237519428 0
-0.00847493395724 0.000116734167046 0
-0.00765263859562 0.000371110980196 0
0.020875917608 -0.055201371346 0
0.0067532482139 -0.111604731811 0
-0.00979452262657 -0.00380663727252 0
-0.0159375645033 -0.0327996735321 0
-0.0142930671405 -0.0941845535314 0
-0.0113392310455 -0.0125855942902 0
-0.00547378340565 -0.000316799080239 0
0.0145816316433 -0.00354572869169 0
0.00537619396288 -0.0214308144186 0
0.0133859906609 -0.00288842133469 0
-0.00781815922459 -0.00094682700381 0
0.0177264251906 -0.00788363537682 0
-0.0162494904925 -0.0391679693666 0
0.015825146875 -0.0429310242853 0
-0.0108956499442 -0.00228684328979 0
0.0201846060366 -0.0282192029894 0
-0.0150924234808 -0.00796138948537 0
-0.0079535721608 -0.049979746113 0
-0.0209618259871 -0.0348681370527 0
-0.0166971738564 -0.0784655344891 0
0.0186668274761 -0.0419013674589 0
0.0130359418888 -0.0054090061294 0
-0.00794583109522 0.000167083218213 0
0.0224655225387 -0.0541582519103 0
0.0133481619866 -0.00350110461502 0
-0.00784175179329 -0.000457284492649 0
-0.00873415496207 -0.00107001423009 0
0.012724735671 -0.107061185968 0
-0.011913137825 -0.017326059901 0
-0.00343619182771 -0.11845754446 0
0.0140222006759 -0.00317832177723 0
-0.0055067794407 -0.0013756074059 0
-0.0107915948307 -0.0793943552121 0
-0.00776439487736 -0.00162107776133 0
0.0134515835944 -0.00233057255251 0
0.0129155541792 -0.115924093992 0
-0.00524891579886 -0.0116303489411 0
-0.0063794067041 -0.133923713253 0
-0.00746655952292 0.000165091521771 0
-0.00730761153857 0.000100930788582 0
0.00145837921832 -0.106237460189 0
0.0162387939071 -0.00590053370593 0
0.00482048750156 -0.137686975975 0
0.0213308854678 -0.0189031664902 0
-0.012466729426 -0.0680967229419 0
-0.0142382256436 -0.00623749650585 0
0.0148061314021 -0.104574416908 0
-0.00872575969169 -0.0111326605807 0
-0.00713387553854 -0.121093534951 0
0.0121026023079 -0.0652974639315 0
-0.0210087510523 -0.0340201660802 0
0.00997310109946 -0.00453836908833 0
0.0102966041938 -0.00730725687853 0
-0.00810614398993 0.000390442243572 0
-0.00659313086602 -0.00246633312767 0
-0.00520518137451 -0.0258190551299 0
0.0139386563713 -0.0984650891836 0
-0.00741483411584 -0.0427793425978 0
0.00901596408747 -0.0120714679563 0
0.0118285579239 -0.00324233254148 0
-0.00832776362274 -0.000683997967486 0
-0.00791833007444 0.00056656484104 0
0.0219656032783 -0.0313456196566 0
0.0110737256119 -0.00465467483428 0
-0.00825250883207 -4.43311762859e-05 0
-0.00966246756164 -0.00064483950547 0
0.0154874107241 -0.0848073605714 0
-0.015262089946 -0.0135564584757 0
-0.00621738564309 -0.0936067322861 0
-0.0199861219276 -0.058998456044 0
0.00875098331865 -0.00287484322598 0
-0.00267988437961 -0.000248035401137 0
0.0156695945232 -0.0278299780514 0
-0.0151919943233 -0.0748156733006 0
-0.00822734932118 2.68749754727e-05 0
0.00317483950117 -0.11810237445 0
-0.016467888876 -0.0247873897197 0
-0.0167007731696 -0.0808671111719 0
-0.0101917150084 -0.0024646748571 0
-0.00207473622708 -0.000373848084488 0
0.00649451950282 -0.00153563824107 0
-0.00322778115175 -0.000331959465858 0
0.0137690334072 -0.00871361542133 0
-0.00798720007717 0.000489269241666 0
0.0180760824857 -0.0574516050431 0
0.00968200343303 -0.101445448755 0
-0.0165956093791 -0.0547517910975 0
-0.00898096670521 -0.000422975047481 0
0.0168393044421 -0.093063854686 0
-0.00938371952022 -0.00821726443576 0
-0.00957350424251 -0.112647738062 0
0.0146624586258 -0.00296513620795 0
-0.00715511199892 -0.00100414775985 0
0.00896545450922 -0.0385777996158 0
0.0171040400509 -0.0811729215354 0
0.015504987222 -0.00364067757466 0
-0.00646826580435 -0.000377265122898 0
-0.00711089537951 -0.000622780202293 0
0.0121653875781 -0.121108860741 0
-0.00515133495632 -0.0143319304402 0
-0.00981256991188 -0.0705673712702 0
-0.00477361754419 -0.13628299634 0
-0.000368160930098 -0.0657489319817 0
0.0216299720119 -0.0463694725639 0
0.0146139298665 -0.00281225351817 0
-0.00691953596367 -0.0016831854126 0
0.00972620886016 -0.0582502053426 0
0.0083155550396 -0.00884569725726 0
0.0205878653498 -0.016990738267 0
-0.00444868657343 -0.013539876191 0
0.00453585606786 -0.0406001816199 0
-0.00635158923222 -0.00261338454428 0
-0.0169324278713 -0.0177032659819 0
-0.00541242242813 -0.000139945184534 0
-0.0189195346123 -0.0174030282654 0
-0.00811610594578 0.000343158868118 0
0.020117160938 -0.0734009953171 0
-0.00446001932554 -0.000803026475835 0
-0.00228747073934 -0.000936853541257 0
0.00694253985805 -0.00236731074875 0
0.0120618376595 -0.00246844612604 0
-0.00840110560633 -0.00135711212513 0
0.0158589695424 -0.0120496820128 0
-0.00150152930641 -0.0181605845337 0
-0.00893874642986 -0.00527563590503 0
-0.00803615492221 -0.00171208914282 0
0.0128598072472 -0.00211109693857 0
-0.00582041694572 -0.00157261235307 0
0.0149127825638 -0.00491059763347 0
-0.00640945403913 -0.000320093743703 0
-0.00798613795463 -0.0148289814294 0
0.00860951828268 -0.0148612415728 0
-0.0111077699655 -0.00182285211844 0
-0.0081081351863 0.000517059370663 0
0.0131804605469 -0.071296183129 0
-0.0189663208558 -0.0554677997258 0
0.0115178607219 -0.0779311787628 0
-0.0103751405262 -0.0925375546413 0
0.00712178794282 -0.120525394455 0
0.014946539579 -0.0035936722535 0
-0.00729400821852 -0.000407179923275 0
0.00969573395158 -0.00742730991367 0
-0.00193183224306 -0.0787276232761 0
-0.0108498161241 -0.110731016795 0
-0.0184265332621 -0.0167285183545 0
-0.0186548586646 -0.0253003438694 0
-0.0169810182946 -0.0757332766829 0
-0.0110457396472 -0.00276997852899 0
0.00891474557089 -0.0918512272271 0
0.0088362357995 -0.136189568301 0
-2.62510883896e-06 -0.143645687854 0
0.0152138986134 -0.00759183566945 0
0.0126785659508 -0.00284411699403 0
-0.00807821334262 -0.000979910883043 0
-0.0058426406063 -0.00447826475578 0
-0.00523044865079 -0.00744870744371 0
-0.0107186447356 -0.118304902977 0
-0.00890623398779 -0.128846336078 0
-0.00508899437615 -0.000651763761929 0
0.0136646822286 -0.00288923546912 0
0.0230759679525 -0.032745199454 0
0.0133891200504 -0.00261173179858 0
-0.00780687934769 -0.00127848988953 0
0.0177238837061 -0.0105087050418 0
0.0125152794121 -0.111617307613 0
-0.00232452555081 -0.0332710559929 0
-0.0157391723223 -0.00914843969349 0
-0.00920807177384 -0.0719217095024 0
0.00777423718968 -0.0175432895769 0
-0.00119584324559 -0.105599716565 0
-0.00769681811465 0.000476739724287 0
-0.00844141460696 -0.00174356360436 0
0.012056415628 -0.00198197230243 0
-0.017401215814 -0.0407102050022 0
-0.0126003598498 -0.0986847107017 0
-0.0104584586286 -0.00555187386127 0
-0.00759317758559 7.02600878931e-05 0
0.018374162774 -0.00886829702009 0
0.0148562728223 -0.00497178543838 0
0.0125527490284 -0.00355225484765 0
-0.00805243715547 -0.000437565737518 0
0.012786973385 -0.0137663075957 0
0.00663739572887 -0.0242666925789 0
-0.00740224009667 0.000189703154791 0
0.0232569198399 -0.038630618535 0
0.0199277507283 -0.0707469446963 0
-0.0131995653707 -0.00681809956544 0
-0.0206927527707 -0.0409529331416 0
-0.0120847867332 -0.0854487699144 0
-0.0087813787448 0.000199198252871 0
-0.0186746111716 -0.069600605039 0
-0.0100506832383 -0.000800749776575 0
0.0133539048631 -0.0954828525502 0
-0.00962045630685 -0.00110766868169 0
-0.0149078167951 -0.0172453226313 0
0.0136583482854 -0.00461947047683 0
0.0157452790358 -0.0728825899781 0
-0.00782348738255 -1.99588381056e-05 0
-0.0166653209527 -0.0127974114557 0
-0.0204977037955 -0.0509835571767 0
-0.00611957739368 -0.0815851461014 0
0.0185929903975 -0.0653207110337 0
0.0210986678675 -0.0568293274893 0
-0.0083497187142 -0.00299095850187 0
-0.0121446824878 -0.0293414105281 0
-0.0139422284363 -0.0984036216424 0
0.00617539538523 -0.140888744375 0
0.0032696941637 -0.143480906719 0
0.0173199582025 -0.0845811574909 0
-0.0133191407846 -0.0104244232795 0
-0.00850855065216 -0.099165364922 0
-0.0197777702446 -0.0553269235703 0
0.00983309540301 -0.00645582951583 0
-0.00820901660367 0.000282067423906 0
-0.00801091674637 0.000578903267719 0
0.0224160640352 -0.0341218035114 0
0.0115697699977 -0.117027762589 0
-0.00263224997682 -0.127663293551 0
0.020262705205 -0.0270136623428 0
0.00908501573847 -0.00848388860558 0
-0.00505170774401 -0.00950077348458 0
-0.00764537711689 -0.132436837227 0
0.0163717302609 -0.0050299804038 0
-0.00701618584575 -1.82458850012e-06 0
-0.0172077874162 -0.050683690839 0
-0.00749589759363 -0.00169762334114 0
0.013952847181 -0.0024175107857 0
-0.00813105911566 0.000460582826153 0
-0.0118760785242 -0.00275030172682 0
-0.00808924190354 0.000458558555812 0
-0.00905473392621 -0.000118075392413 0
0.0134097715063 -0.00644894688437 0
-0.00793872093729 0.000324774133151 0
0.020602193814 -0.0403116420796 0
-0.00197968366957 -0.000225422096737 0
0.00630129872731 -0.00157196003725 0
-0.00776404245282 0.000335699283742 0