# vtk DataFile Version 2.0
Generated with Solid Solver
ASCII
DATASET UNSTRUCTURED_GRID
POINTS 1163 float 
0.0 3.5 0.0
2.2 3.5 0.0
2.2 4.0 0.0
0.0 4.0 0.0
0.0687499999999 3.5 0.0
0.1375 3.5 0.0
0.20625 3.5 0.0
0.275 3.5 0.0
0.343749999999 3.5 0.0
0.412499999999 3.5 0.0
0.481249999999 3.5 0.0
0.549999999999 3.5 0.0
0.618749999998 3.5 0.0
0.687499999998 3.5 0.0
0.756249999998 3.5 0.0
0.824999999998 3.5 0.0
0.893749999998 3.5 0.0
0.962499999997 3.5 0.0
1.03125 3.5 0.0
1.1 3.5 0.0
1.16875 3.5 0.0
1.2375 3.5 0.0
1.30625 3.5 0.0
1.375 3.5 0.0
1.44375 3.5 0.0
1.5125 3.5 0.0
1.58125 3.5 0.0
1.65 3.5 0.0
1.71875 3.5 0.0
1.7875 3.5 0.0
1.85625 3.5 0.0
1.925 3.5 0.0
1.99375 3.5 0.0
2.0625 3.5 0.0
2.13125 3.5 0.0
2.2 3.56430812579 0.0
2.2 3.6227083524 0.0
2.2 3.67574343203 0.0
2.2 3.72390623714 0.0
2.2 3.76764438299 0.0
2.2 3.80736436348 0.0
2.2 3.84343531161 0.0
2.2 3.87619247056 0.0
2.2 3.90594026646 0.0
2.2 3.93295517223 0.0
2.2 3.9574882542 0.0
2.2 3.97976750927 0.0
2.18000003888 4.0 0.0
2.15999995974 4.0 0.0
2.13999995594 4.0 0.0
2.12000003893 4.0 0.0
2.0999999813 4.0 0.0
2.07999993507 4.0 0.0
2.06000001965 4.0 0.0
2.04000002354 4.0 0.0
2.01999993997 4.0 0.0
1.99999999426 4.0 0.0
1.98000004623 4.0 0.0
1.95999996625 4.0 0.0
1.93999996787 4.0 0.0
1.92000005069 4.0 0.0
1.90000001292 4.0 0.0
1.87999994967 4.0 0.0
1.86000003245 4.0 0.0
1.84000003166 4.0 0.0
1.81999995194 4.0 0.0
1.80000002065 4.0 0.0
1.78000005962 4.0 0.0
1.75999997703 4.0 0.0
1.73999998149 4.0 0.0
1.72000006236 4.0 0.0
1.70000000651 4.0 0.0
1.67999995967 4.0 0.0
1.66000004242 4.0 0.0
1.64000004304 4.0 0.0
1.61999996152 4.0 0.0
1.6000000096 4.0 0.0
1.58000006667 4.0 0.0
1.55999998704 4.0 0.0
1.53999998381 4.0 0.0
1.52000006764 4.0 0.0
1.5000000299 4.0 0.0
1.47999996242 4.0 0.0
1.46000004337 4.0 0.0
1.4400000454 4.0 0.0
1.41999996386 4.0 0.0
1.40000002834 4.0 0.0
1.38000006734 4.0 0.0
1.35999998576 4.0 0.0
1.33999998537 4.0 0.0
1.32000006658 4.0 0.0
1.30000001585 4.0 0.0
1.27999996279 4.0 0.0
1.26000004759 4.0 0.0
1.24000004493 4.0 0.0
1.2199999616 4.0 0.0
1.20000000906 4.0 0.0
1.18000006792 4.0 0.0
1.15999998616 4.0 0.0
1.13999999119 4.0 0.0
1.12000007157 4.0 0.0
1.1 4.0 0.0
1.07999992843 4.0 0.0
1.06000000881 4.0 0.0
1.04000001384 4.0 0.0
1.01999993209 4.0 0.0
0.999999990948 4.0 0.0
0.98000003841 4.0 0.0
0.959999955072 4.0 0.0
0.939999952416 4.0 0.0
0.920000037214 4.0 0.0
0.899999984154 4.0 0.0
0.879999933427 4.0 0.0
0.860000014636 4.0 0.0
0.840000014246 4.0 0.0
0.819999932662 4.0 0.0
0.79999997166 4.0 0.0
0.780000036145 4.0 0.0
0.759999954604 4.0 0.0
0.73999995663 4.0 0.0
0.72000003758 4.0 0.0
0.699999970103 4.0 0.0
0.679999932361 4.0 0.0
0.660000016189 4.0 0.0
0.640000012962 4.0 0.0
0.61999993333 4.0 0.0
0.599999990406 4.0 0.0
0.58000003848 4.0 0.0
0.559999956964 4.0 0.0
0.539999957581 4.0 0.0
0.520000040329 4.0 0.0
0.499999993489 4.0 0.0
0.479999937647 4.0 0.0
0.460000018512 4.0 0.0
0.440000022972 4.0 0.0
0.419999940378 4.0 0.0
0.399999979352 4.0 0.0
0.380000048063 4.0 0.0
0.359999968347 4.0 0.0
0.339999967553 4.0 0.0
0.320000050328 4.0 0.0
0.299999987077 4.0 0.0
0.279999949312 4.0 0.0
0.260000032129 4.0 0.0
0.240000033752 4.0 0.0
0.219999953776 4.0 0.0
0.200000005737 4.0 0.0
0.180000060031 4.0 0.0
0.159999976465 4.0 0.0
0.139999980354 4.0 0.0
0.120000064926 4.0 0.0
0.100000018697 4.0 0.0
0.0799999610675 4.0 0.0
0.0600000440571 4.0 0.0
0.0400000402596 4.0 0.0
0.0199999611169 4.0 0.0
0.0 3.97976750927 0.0
0.0 3.9574882542 0.0
0.0 3.93295517223 0.0
0.0 3.90594026646 0.0
0.0 3.87619247056 0.0
0.0 3.84343531161 0.0
0.0 3.80736436348 0.0
0.0 3.76764438299 0.0
0.0 3.72390623714 0.0
0.0 3.67574343203 0.0
0.0 3.6227083524 0.0
0.0 3.56430812579 0.0
0.249757963562 3.75212589829 0.0
1.94999996706 3.74954522137 0.0
0.488710285893 3.75947702441 0.0
0.726520490699 3.7655965719 0.0
0.967283134849 3.7597072979 0.0
1.20619032017 3.75831098673 0.0
1.45842774915 3.76733088374 0.0
1.69012076678 3.7622332834 0.0
0.130754044069 3.86878249167 0.0
2.06924595593 3.86878249167 0.0
1.8299999918 3.84622455633 0.0
1.56816462369 3.85034872999 0.0
0.369913859351 3.84868157925 0.0
0.608733620231 3.84706187144 0.0
1.33069778866 3.84790908234 0.0
0.84323446252 3.84762979148 0.0
1.08873170817 3.84705870913 0.0
0.250539365135 3.87785524304 0.0
1.94967747948 3.87849609822 0.0
1.73218750075 3.8916046151 0.0
0.468661874066 3.89189322974 0.0
1.47574192429 3.89639134117 0.0
0.704258110321 3.8963912684 0.0
1.18331258449 3.8976320365 0.0
0.949999953744 3.89208018478 0.0
1.64795374468 3.91749779939 0.0
0.548928463645 3.91905583847 0.0
1.38619509199 3.91928594438 0.0
0.788926872841 3.91906062101 0.0
1.27071160784 3.91777932845 0.0
1.02999997296 3.91685174433 0.0
1.81733541416 3.69950870754 0.0
1.86999999106 3.91823503401 0.0
0.071252620538 3.93011431841 0.0
2.12874737946 3.93011431841 0.0
2.07400690796 3.74293885365 0.0
0.125993092043 3.74293885365 0.0
0.32995676804 3.92118147353 0.0
2.00999996712 3.92542383197 0.0
0.190000032884 3.92542383197 0.0
1.56698738743 3.72218882919 0.0
1.33000000474 3.72531695685 0.0
0.848014510843 3.71986098938 0.0
1.09024665585 3.72285801424 0.0
0.610276609989 3.72290563624 0.0
1.54999998543 3.92414142844 0.0
0.629999973146 3.92414137652 0.0
0.869999974031 3.92414141814 0.0
1.11000003579 3.92414141267 0.0
1.79030638642 3.92649353654 0.0
0.370434802927 3.72513294336 0.0
0.410903135411 3.92892991244 0.0
1.33000002597 3.93737911571 0.0
0.129927648482 3.94112154503 0.0
2.07007235152 3.94112154503 0.0
1.93000000928 3.93875927586 0.0
0.26999999072 3.93875927586 0.0
1.40966706061 3.83880068991 0.0
0.770332962441 3.83880062149 0.0
1.24904900022 3.84293377683 0.0
1.01033287484 3.83880060723 0.0
0.530342681434 3.83880307444 0.0
0.189895273961 3.63486992823 0.0
2.00989835291 3.62845703161 0.0
0.998888153878 3.61665036233 0.0
1.47894673873 3.61675180774 0.0
0.51733910646 3.62937665489 0.0
0.705112628302 3.618743723 0.0
1.66672137035 3.63168728155 0.0
1.18508242495 3.61871739348 0.0
1.71000003443 3.94408608591 0.0
0.489999965568 3.94463856597 0.0
1.44983363802 3.94422347836 0.0
0.729999997105 3.94465012565 0.0
1.21016639734 3.94422345842 0.0
0.928621800545 3.94440037102 0.0
2.00626203014 3.81543543551 0.0
0.193627962274 3.81528928332 0.0
1.66628164144 3.83559795895 0.0
1.75661718781 3.81065958113 0.0
1.61143779865 3.94859227761 0.0
0.991673865748 3.95161238438 0.0
0.0604617941233 3.86281264864 0.0
2.13953820588 3.86281264865 0.0
0.300965570716 3.8114148258 0.0
0.2970894797 3.66361086085 0.0
0.398842167194 3.60449226805 0.0
1.51000004877 3.95218393067 0.0
1.90135619383 3.81213273629 0.0
0.669405272842 3.95495208979 0.0
1.07142780558 3.94866325309 0.0
0.592085094025 3.94901139323 0.0
0.831051660929 3.94633985879 0.0
1.14940528892 3.9549521224 0.0
0.44409344258 3.82719938178 0.0
1.49646539728 3.82376850413 0.0
0.683434082651 3.82631713605 0.0
0.92337834777 3.8234861632 0.0
1.16343437877 3.82631615351 0.0
1.90749084149 3.65350700271 0.0
1.8278758005 3.95083911942 0.0
0.37243073327 3.95235211027 0.0
1.29345662549 3.60569899261 0.0
0.813407949226 3.60572380122 0.0
1.29317153636 3.96216077293 0.0
1.367704599 3.96055764734 0.0
1.97071235041 3.96038324024 0.0
0.22928764959 3.96038324024 0.0
2.10610581798 3.66047411138 0.0
0.0938941820177 3.66047411138 0.0
1.67000000105 3.95862953468 0.0
1.74869816704 3.96079301687 0.0
0.531976761939 3.96138655466 0.0
0.451361042387 3.96112774725 0.0
0.771976832233 3.96138887156 0.0
1.88843481911 3.95881554986 0.0
1.61277513709 3.78538823015 0.0
2.13311214501 3.79435403671 0.0
0.0668878549946 3.79435403671 0.0
1.76678797151 3.60286552601 0.0
0.311702446283 3.9611157379 0.0
1.02877762737 3.96159282031 0.0
1.40830122607 3.96143175203 0.0
1.25214210333 3.957355862 0.0
1.59476493393 3.9048774062 0.0
1.56950979124 3.96148017208 0.0
0.890017020275 3.96125792969 0.0
2.03089110475 3.96040268709 0.0
0.169108895255 3.96040268709 0.0
0.939722125942 3.68539157065 0.0
1.41686981874 3.69192854313 0.0
0.0426348006718 3.96101756902 0.0
2.15736519933 3.96101756902 0.0
1.36077308019 3.79177204211 0.0
0.817982383499 3.78962669257 0.0
1.05834720932 3.78780184893 0.0
0.578349529346 3.78781530011 0.0
1.77992711518 3.87652731382 0.0
0.417982153133 3.87594990465 0.0
1.84363633012 3.77741329286 0.0
1.52244994479 3.87704541475 0.0
0.657426528912 3.87734838249 0.0
1.13742651778 3.87734834025 0.0
0.898116026439 3.8800466833 0.0
1.56984259435 3.64465823131 0.0
1.08983016076 3.6446495206 0.0
0.609942357805 3.64483976081 0.0
1.29451769374 3.79627773068 0.0
0.0893439668432 3.96574839433 0.0
2.11065603316 3.96574839433 0.0
2.01422398896 3.86980625824 0.0
0.185776011038 3.86980625824 0.0
0.305957237756 3.87340573745 0.0
1.72977480551 3.68665973332 0.0
1.25418096296 3.69351129461 0.0
0.629999973146 3.96272981435 0.0
1.11000003579 3.96272983221 0.0
0.772975283819 3.69297597031 0.0
1.89089074715 3.86951346173 0.0
0.445448577516 3.69456159386 0.0
1.82621986864 3.89678318705 0.0
2.07135424223 3.81165410377 0.0
0.128645757768 3.81165410377 0.0
0.373320289473 3.89968791662 0.0
1.79000004014 3.96541718891 0.0
0.383302070088 3.78976392323 0.0
0.409457623385 3.96502881851 0.0
1.55531527123 3.78787141386 0.0
1.34861332978 3.89383287415 0.0
0.593245985735 3.89483466551 0.0
0.833245353375 3.89479604398 0.0
1.0732444554 3.8948349405 0.0
0.911896623122 3.59194725763 0.0
0.187580554011 3.70699710313 0.0
2.01241944599 3.70699710313 0.0
1.39201907571 3.59233063354 0.0
2.09635520798 3.90516200201 0.0
0.103644792024 3.90516200201 0.0
1.89086147526 3.72621461413 0.0
1.02102684616 3.70044819701 0.0
1.49813234221 3.70194667869 0.0
0.53965669049 3.70593418829 0.0
1.63719578665 3.69772473547 0.0
0.685447658936 3.70127585046 0.0
1.16541741817 3.70128744764 0.0
0.901649266036 3.76287226775 0.0
0.992351690321 3.90662993531 0.0
1.69131894868 3.90657323657 0.0
1.9699561555 3.91599371502 0.0
0.230043844497 3.91599371502 0.0
1.61980840676 3.85005402918 0.0
2.04685187594 3.90639759008 0.0
0.153148124058 3.90639759008 0.0
0.512139828486 3.90538520837 0.0
1.43057458921 3.90702644399 0.0
0.749149996349 3.90689574876 0.0
[...]
POINT_DATA 1163
VECTORS Displacement float
0.0 0.0 0
0.0 0.0 0
0.000664670725031 0.000701893167977 0
-0.000915837408716 -0.000243875978022 0
0.0 0.0 0
0.0 0.0 0
0.0 0.0 0
0.0 0.0 0
0.0 0.0 0
0.0 0.0 0
0.0 0.0 0
0.0 0.0 0
0.0 0.0 0
0.0 0.0 0
0.0 0.0 0
0.0 0.0 0
0.0 0.0 0
0.0 0.0 0
0.0 0.0 0
0.0 0.0 0
0.0 0.0 0
0.0 0.0 0
0.0 0.0 0
0.0 0.0 0
0.0 0.0 0
0.0 0.0 0
0.0 0.0 0
0.0 0.0 0
0.0 0.0 0
0.0 0.0 0
0.0 0.0 0
0.0 0.0 0
0.0 0.0 0
0.0 0.0 0
0.0 0.0 0
0.00112188519979 -0.000646352451519 0
0.0019067970995 -0.000678427207778 0
0.00239070872592 -0.00048275588523 0
0.00254284579265 -0.000196330839889 0
0.00249284112446 7.17943589092e-05 0
0.00230930836371 0.000303386345132 0
0.00204312556295 0.000472615572354 0
0.00176761952727 0.000589026855049 0
0.00149042048011 0.000659375667068 0
0.00123736267867 0.000689212640759 0
0.00101752453649 0.000701024400989 0
0.000828968009093 0.000702596402546 0
0.000665375406119 0.000540300638622 0
0.000665492085675 0.000385810116832 0
0.000659401303111 0.00023992756863 0
0.000643408609896 0.000102007116053 0
0.000614177178493 -3.08272509435e-05 0
0.000569223389675 -0.000165773189067 0
0.000505295874419 -0.000300860686127 0
0.000423826296693 -0.000450992367815 0
0.000320273364587 -0.000610606855648 0
0.000200893034355 -0.000794732079544 0
5.40214029441e-05 -0.00100002281719 0
-0.000112457706599 -0.00124021780361 0
-0.000295242132439 -0.0015201838664 0
-0.000505803580891 -0.00183918564161 0
-0.000729085954138 -0.00221264264252 0
-0.000984004793099 -0.00263895809718 0
-0.001255548488 -0.0031369618346 0
-0.00154892452233 -0.00370306549976 0
-0.00185876393312 -0.00436206779791 0
-0.00220579248338 -0.0051173433696 0
-0.00255828503408 -0.00598826577537 0
-0.00290795357904 -0.00698602543812 0
-0.00329622952004 -0.00812535122635 0
-0.003680498642 -0.00944181959403 0
-0.00410177557638 -0.0109822955674 0
-0.0044636614063 -0.0127607977808 0
-0.00483949304268 -0.0148615124561 0
-0.00518848275754 -0.0174135217729 0
-0.00533433572419 -0.0206078804896 0
-0.00507675775832 -0.0250371123991 0
-0.0046055801431 -0.0295021551331 0
-0.00392105106593 -0.0334499657079 0
-0.00327863378937 -0.0369212849255 0
-0.00264638713881 -0.0399131437828 0
-0.00206873285365 -0.0424486438558 0
-0.00151302720473 -0.0445253136205 0
-0.00099453882799 -0.0461395567231 0
-0.000500832305976 -0.0472980122075 0
-7.89026275342e-05 -0.0479961712546 0
0.000329222463005 -0.0482318337815 0
0.00067185705271 -0.0480165435491 0
0.00107034971914 -0.0473283685623 0
0.00151514189559 -0.0461827852383 0
0.00205335151775 -0.0445839716943 0
0.00258475391469 -0.0425162393111 0
0.00318386347892 -0.0399990305294 0
0.00378781479976 -0.037004529249 0
0.00445463387231 -0.0335560728631 0
0.00507816308998 -0.0296151322447 0
0.00569484810056 -0.0251887982894 0
0.00596514863689 -0.0206395253723 0
0.0057829194921 -0.0174313646384 0
0.00545057434688 -0.0148626348834 0
0.00506735317001 -0.0127233202795 0
0.00470469018226 -0.0109226508439 0
0.00429701692241 -0.0093660788978 0
0.00390207540049 -0.00802936916169 0
0.00354976375429 -0.00687260378786 0
0.00317727326471 -0.00585702529402 0
0.00283786340275 -0.0049666836417 0
0.00252220229555 -0.00418871559191 0
0.00220375005543 -0.00350589124235 0
0.00190312700789 -0.00291542262466 0
0.00161997479901 -0.0024059103114 0
0.00136731803064 -0.00196016952467 0
0.00112644037665 -0.00157884859984 0
0.000908574631263 -0.00124139067959 0
0.000703447901237 -0.000954524413426 0
0.00051594697764 -0.000712088693606 0
0.000346080444762 -0.000506824329532 0
0.000193071370405 -0.000331444021998 0
5.03728274377e-05 -0.000185906722272 0
-7.3372837256e-05 -6.32315144481e-05 0
-0.000187652986597 3.59691319903e-05 0
-0.000288775096289 0.000118976971895 0
-0.000378569299215 0.000183440194577 0
-0.000458190394354 0.00023409638188 0
-0.000527944868564 0.000272036507394 0
-0.000587900392906 0.000301637612734 0
-0.00064148899955 0.000321265846901 0
-0.000686698964955 0.000334133462438 0
-0.000727298868021 0.000339012779147 0
-0.000760453824844 0.000339722605923 0
-0.000789284824088 0.000335261350183 0
-0.000812983126013 0.000327918761239 0
-0.000833189606181 0.000316561493741 0
-0.000849402378835 0.00030373389311 0
-0.000862704384916 0.000287704086886 0
-0.000873078361157 0.000271097465225 0
-0.000881795082796 0.000252573215389 0
-0.000888619574228 0.000233045576385 0
-0.000893683828598 0.000212778114613 0
-0.00089778342303 0.000191507226992 0
-0.000900703363797 0.000169771256381 0
-0.000903088260539 0.000147433346444 0
-0.000904814918418 0.000124694449625 0
-0.000906291265439 0.000101405148026 0
-0.000907472595484 7.76779710954e-05 0
-0.00090859813399 5.34068589596e-05 0
-0.000909654856145 2.85493608898e-05 0
-0.000910571966373 3.20505634108e-06 0
-0.00091156452322 -2.26400393038e-05 0
-0.000912467654471 -4.90264285179e-05 0
-0.000913404358677 -7.59263437962e-05 0
-0.000914193941325 -0.000103301872135 0
-0.000914890286698 -0.000131081179997 0
-0.000915414836427 -0.000159185889651 0
-0.000915709950216 -0.000187435326018 0
-0.00091582948578 -0.000215715471739 0
-0.000887408247048 -0.000243884920056 0
-0.000856203997922 -0.000244073398938 0
-0.000821805311121 -0.000244526929975 0
-0.000783451114726 -0.000245392281628 0
-0.000740248444834 -0.000246792371278 0
-0.000690438917267 -0.000248291972073 0
-0.000633383506408 -0.000249147607288 0
-0.000565342663087 -0.000248666841616 0
-0.000485075474935 -0.000243607940983 0
-0.000388834398136 -0.000228865377359 0
-0.000273828081158 -0.000197652045082 0
-0.000147033333532 -0.000135950716744 0
-0.000587726668118 5.30906157483e-05 0
0.00331503705915 -0.00117012917222 0
-0.000899001336692 0.000214200484379 0
-0.00172272094163 -6.84425088626e-05 0
-0.00364803224928 -0.00317827455405 0
-0.0045250367654 -0.0138444473814 0
0.00204927635823 -0.0204797097394 0
0.00520712322929 -0.00874737086443 0
-0.000733037665229 -6.13215131267e-05 0
0.00191648559975 -0.000207796049708 0
0.00302383012225 -0.00372944023844 0
0.00439194477264 -0.021431625388 0
-0.00078939683547 0.000203145316429 0
-0.00104263955237 0.000315080758974 0
-0.00185201011268 -0.0281515275204 0
-0.00167412732533 -0.00087287919 0
-0.00361173326844 -0.00923297123268 0
-0.000765395392217 8.4763313574e-05 0
0.00190168761462 -0.00121906201639 0
0.0025310234007 -0.0083205841725 0
-0.000848773753064 0.000310782676641 0
0.00204358756293 -0.0330528634232 0
-0.000897109138732 0.000173285713416 0
-0.00298876482707 -0.018925176057 0
-0.00122758473893 -0.00298676300967 0
0.00233689760882 -0.0157926035409 0
-0.000828352370247 0.000361737617872 0
1.2796231246e-05 -0.0380708615422 0
-0.000635547824156 -0.000292332430001 0
-0.00188068856121 -0.0307619585261 0
-0.000686752083654 -0.00612621361638 0
0.00431402323472 -0.00313780578961 0
0.00109892682084 -0.00268282999618 0
-0.000818094608185 -0.000142987866354 0
0.00126504335922 0.000162494622457 0
0.00277189466542 -0.000298449954634 0
-0.000523741410773 -6.56014458396e-05 0
-0.000825524464257 0.000179699101713 0
0.00118049275516 -0.000605002167786 0
-0.000815537661476 1.57203808352e-05 0
0.0043370428872 -0.0129345676319 0
-0.00189271360875 -0.0164226220422 0
-0.00269656445278 -0.000975216398701 0
-0.00468196213533 -0.00677506328627 0
-0.0012358624079 0.000127892635019 0
0.00236322019976 -0.0288743787547 0
-0.000776945041434 0.000331166702633 0
-0.000427418353494 -0.00124576862397 0
-0.000884164117574 -0.0115552283393 0
0.000820366650066 -0.00531315347824 0
-0.000658201418724 0.000120215797486 0
-0.000837253052019 0.000266176818129 0
-0.000545637395517 -0.0381139758192 0
-0.000833921154013 -6.21022278993e-05 0
0.00109057399806 -0.000190789602337 0
0.000754658826282 -0.00153245677625 0
-0.000837138611854 0.000112924753876 0
0.00052952496891 -0.0286791178998 0
-0.00148164607542 -0.000199614450132 0
-0.00377050453167 -0.0223554017733 0
-0.002978012878 -0.00504741716307 0
-0.000942727761751 0.000315018451753 0
-0.000312692037734 -1.17673404957e-05 0
0.00242088950726 -0.000492806121965 0
-0.00311098463597 -0.00222163457593 0
0.00161711482723 -0.00766143912033 0
-0.000705877764269 4.53524755594e-05 0
-0.00132514330212 -0.000171098925589 0
0.00385309217175 -0.00507745399517 0
-0.00326584792706 -0.00561615334896 0
0.000115855017372 -0.01000285041 0
-0.000822728331237 0.000334127725985 0
0.000706452291507 -0.0400269638725 0
-0.000501228815382 5.88632257033e-05 0
-0.000743978446043 -0.0246282369753 0
0.000229336724759 -0.00245770362158 0
0.00258512242443 -0.000646736171304 0
-0.000663875767465 1.2111463056e-05 0
0.00472968318555 -0.0122540731627 0
0.00434133788591 -0.00638434788593 0
0.000852136647572 -0.0213421817896 0
0.000751912506466 -0.00446074665136 0
-0.000720765727496 -0.000157658085832 0
0.00193329587551 0.000150753670952 0
-0.000708444625731 0.000119869433102 0
-0.000450555016105 4.29007956047e-05 0
-0.000403232410343 2.74983778575e-05 0
0.000770862119648 -0.036240925526 0
0.00312073386806 -0.00195553467721 0
-0.00058791952423 0.000255878817994 0
0.000787883314005 -0.00859708804337 0
-0.00073898190068 0.000355756298918 0
-0.000149090428683 -0.000727147989387 0
0.000794947789682 -0.0158891672123 0
-0.000844642086908 0.000256591440837 0
0.00321042787815 -0.0243999226188 0
-0.00129194980608 0.00017606502257 0
-0.00252004957554 -0.0022580352653 0
-0.00450053160278 -0.0142821202959 0
0.00327885713424 -0.00132866317306 0
-1.73002520933e-05 -0.00392119920701 0
-0.000850614107622 0.000228040940302 0
-0.00183653210208 -0.00654987358072 0
-0.00179269018934 -0.000524886018951 0
0.000282512940838 -0.0377182133729 0
0.000223088924706 -0.0427377192588 0
0.00053881543791 -0.00102201549864 0
-0.000860399191081 6.5000265716e-05 0
0.00241016838077 -0.000266510828519 0
-0.000349414853845 -8.38436025453e-05 0
-0.000701881070818 -0.0136395881764 0
-0.000873392497406 -0.00744031238669 0
-0.000785413976066 0.000353395124885 0
-0.00083768735646 0.000303616394338 0
-0.000208409151666 -0.0001969434324 0
9.91927120357e-05 -0.00231809810806 0
0.00515287346236 -0.0141621896102 0
0.00248154511619 -2.04207285506e-05 0
-0.000611513733257 -0.000144938648587 0
0.00325904910052 -0.00241906477459 0
-0.000861055903987 0.000161403850056 0
0.00139330620955 -0.00612619359527 0
0.000289251339809 -0.0433681510384 0
-9.64332718844e-06 -0.0320826919323 0
0.0033242535573 -0.0218644277352 0
0.000161461111135 -0.0289637016986 0
0.0004331596651 -0.00164211606683 0
0.000782472677902 -0.000467114873008 0
-0.000859915289976 -1.04539171645e-05 0
-0.00342173083358 -0.00210639305178 0
0.00059316824271 -0.0141743237543 0
-0.000861152951096 -0.000183641178677 0
0.000983395878677 0.000365209896882 0
-0.00107547823115 -0.0232871245808 0
-0.00213845589152 -0.000643410563435 0
-0.00429212454449 -0.00672833502532 0
-0.00110309684432 0.000259428540569 0
0.00264355296257 -0.00569856419351 0
-0.000828723071971 0.000260699898288 0
0.00394025553491 -0.00310757267739 0
0.00332217715679 -0.0275703615503 0
-0.000984190018859 0.00028089260955 0
-0.00326637447101 -0.0135623602207 0
-0.00134005230734 -0.00173073528855 0
0.00339850961315 -0.00801938344297 0
-0.00389582459905 -0.00454937630256 0
-0.00105030642478 1.0472870472e-05 0
-0.0029956247949 -0.0214334541582 0
-0.000867380098914 -0.000117764567244 0
0.000906022329987 5.26685059315e-05 0
0.00195095672455 -0.000563493051183 0
-0.00074134228951 7.91018862446e-06 0
-0.000777530384152 0.000145500345887 0
0.00472358423874 -0.00518092665214 0
-0.00342431308347 -0.0118083784271 0
-0.000644486437671 0.000317952777281 0
0.00171653720144 -0.0116810201333 0
-0.00209131302193 -0.000382143910424 0
0.00221612732738 -0.00218298038488 0
-0.000727905850847 0.00012139675661 0
0.00176244684028 -0.00391646181292 0
0.0024590045583 -0.000242970921536 0
-0.000644649240999 -6.39067316355e-05 0
-0.000818972935393 0.000223357000952 0
-0.000834082550108 -0.0053944198775 0
-0.000754960342806 0.000180859758322 0
-0.000852884224536 0.000265243952501 0
0.00445746012585 -0.0179569338256 0
-0.000986737157002 -0.0339698874468 0
-0.000883732003811 0.000354278264148 0
-0.000959086674743 -0.00072532623384 0
-0.00190108467019 -0.00859090081219 0
-0.00218404210206 -0.00102471861522 0
-0.000469915214713 -7.57403747625e-06 0
0.00298201715907 -0.000597548716923 0
-5.65841455118e-05 -0.00622333681363 0
0.00151369400614 -3.64457826979e-05 0
-0.00078367888062 -9.76208000784e-05 0
0.00378447784417 -0.00191127512089 0
-0.0041881400931 -0.00403876682433 0
0.00281301788056 -0.0137807226511 0
-0.000978037762089 0.000146142705422 0
0.00480037585676 -0.00875646480693 0
-0.00155798146643 -4.15120063114e-05 0
-0.00450617100344 -0.00899947898568 0
-0.00299451898557 -0.00176943883249 0
-0.000923828374555 -0.00444127872658 0
0.00230867854871 -0.0113791564034 0
0.00126447379566 -0.000987982630676 0
-0.000807498666071 6.43832092151e-05 0
0.00466859551308 -0.0166496874021 0
0.00147373940746 -0.000331578753071 0
-0.000787834062703 -3.17723577444e-05 0
-0.000849095205596 0.000343996503393 0
0.000929796369004 -0.0362670311599 0
-0.000805393803299 -2.25437027994e-05 0
-0.00250737075091 -0.0251848230101 0
0.00264955600105 -0.000172988912532 0
-0.000486551769484 -0.000139939822185 0
0.00107530685896 -0.00330797670257 0
-0.000775933971131 -0.000186213839249 0
0.0015597728547 0.000327881753938 0
0.000123508023341 -0.0409245531232 0
-0.000437761351633 0.00015374850392 0
0.00136926638577 -0.0207850440937 0
-0.000700091493914 7.0845085741e-05 0
-0.000638903723432 0.000102089345113 0
-0.00270469402478 -0.0278321213281 0
0.00264517630134 -0.00116297252523 0
0.000348339100704 -0.0414109998271 0
0.00475694221143 -0.00526638562369 0
-0.00476119650144 -0.00960653590964 0
-0.00130037592584 0.000190069547345 0
0.00141581090159 -0.0364074533338 0
-0.000669142706271 0.000192841619615 0
-0.00136833184431 -0.0193010620661 0
-0.00116344316654 -0.0175992086149 0
-0.00244891530295 -0.00130340593366 0
0.00248376153973 -0.00121359288383 0
0.000236730598534 -0.00157851294402 0
-0.000865653916329 0.000113538972326 0
-0.000749292225969 0.00035567888697 0
-2.45438314588e-05 -0.000417769420527 0
-4.04812223626e-05 -0.0335790847627 0
0.000325104536056 -0.00116898474623 0
-0.00034152445085 -0.00294910648509 0
0.000834659804977 -0.000204653860325 0
-0.000866881374507 -6.18173115132e-05 0
-0.000866943736317 0.00018994890592 0
0.00416255852704 -0.008701697328 0
0.000562519425003 -0.000753018366013 0
-0.000869371647358 3.12345747683e-05 0
-0.000882353574771 0.000296832923711 0
0.00201382622977 -0.0283770110832 0
-0.00128636440643 6.8234385828e-05 0
-0.00427968581777 -0.0178656070926 0
-0.00242326770666 -0.00331791409671 0
0.00208442573588 -0.000684564858826 0
-0.000209679799475 -1.78212274279e-07 0
0.00133675941459 -0.00726470601788 0
-0.000110363528996 -0.00342996035775 0
-0.000837014270912 0.000300832281395 0
-0.00164254011635 -0.0329808939539 0
-0.00123098361323 -0.00037933240614 0
-0.00240240076841 -0.00642758591962 0
-0.000922716769919 0.000345355514425 0
-0.000164062713895 -2.9964197236e-05 0
0.0014618228556 -0.000239516570118 0
-0.000253937534458 9.68834011284e-06 0
0.00138809164764 -0.00195570791836 0
-0.000805599545923 0.000140255567645 0
0.0033381078252 -0.0188149254894 0
-0.000253272428952 -0.0322672575682 0
-0.000645929294497 -0.00194664154227 0
-0.000780412211467 0.000174967663284 0
0.00228689894807 -0.0318838028836 0
-0.000780637580723 0.000278501047856 0
-0.00171401954156 -0.0149816462611 0
0.00219896619326 -8.02734582245e-05 0
-0.000683738233124 -0.000102444507007 0
-0.00153465942655 -0.0100827071615 0
0.00204344921212 -0.0260646018004 0
0.00283033062137 -0.000498532163535 0
-0.000583857932767 -1.74489503924e-05 0
-0.000816778678696 0.000331270826606 0
0.000208372601687 -0.0425161705901 0
-0.000356466996789 5.93280512271e-05 0
0.000930004566132 -0.00260773181318 0
0.00097733155632 -0.0250862889418 0
-0.00350941089158 -0.0159330001766 0
0.0038912197081 -0.0133205444539 0
0.00226643930758 0.000153985589849 0
-0.000655296017353 -0.000186107589935 0
-8.09011317105e-05 -0.0176869739331 0
0.00204360217488 -0.00272417024912 0
0.00403882410075 -0.00446532448156 0
-0.00216377738746 -0.00236555946368 0
-0.00139310129538 -0.0112312355086 0
-0.00066195011736 -9.54332676158e-05 0
-0.00259562070646 -0.000947604491833 0
-0.000452996101033 3.03336163516e-05 0
-0.0021440923759 -0.000409900848486 0
-0.000742000716263 0.000162001445465 0
0.00381075008702 -0.023887842024 0
-0.000374603646788 9.63464853242e-06 0
-0.00018609590034 -8.82901089217e-05 0
0.00148200600331 -0.000301248113183 0
0.000901365267865 0.000213328160795 0
-0.000872251313595 -0.00015264733163 0
0.00204508640636 -0.00290187264735 0
-0.00198584689671 -0.0040687536191 0
-0.00113597336012 -0.000244012686243 0
-0.00081717673582 -0.000200369520535 0
0.0012748041717 0.000432151925579 0
-0.000531178622331 -1.32670680221e-05 0
0.00326905185739 -0.00109696541776 0
-0.000532084823716 6.91033174517e-05 0
-0.00247372669976 -0.00190318640031 0
0.00169694117645 -0.00462657636288 0
-0.000982472184084 0.000258356445704 0
-0.00079361449485 0.000175887314544 0
0.0010942720303 -0.0228412898373 0
-0.00382326620026 -0.00455009743855 0
-0.0015964402303 -0.0225833364525 0
0.00171970615964 -0.00447858213473 0
-0.000506846812972 -0.0375978553045 0
0.00224289635716 -0.000396518939852 0
-0.000697208669593 -2.40583811741e-05 0
0.00249546589857 -0.00220783100378 0
-0.004030522765 -0.0182570804837 0
0.00238026011665 -0.00725941993986 0
-0.00184644631033 -0.000213455041864 0
-0.00163309621135 -0.000479588053904 0
-0.00319318289104 -0.00664044796799 0
-0.000982166456564 0.00032869687556 0
-0.000681266666798 -0.0283787002819 0
0.000349793113934 -0.0455335881525 0
0.00147719204667 -0.0363631062413 0
0.00363393151854 -0.00201005349865 0
0.00119369878353 -9.7850020539e-06 0
-0.000825037855667 -0.000102273374562 0
-0.000666476558429 0.000337169551382 0
-0.000555598373177 0.000274030900909 0
0.00220111623781 -0.00972731732282 0
0.00249894492254 -0.014078572067 0
-0.000437375618583 -5.48013034484e-05 0
0.00275234335605 -0.000339006564623 0
0.00491740184402 -0.00945595852335 0
0.00152286156921 0.000138213239712 0
-0.000782068151809 -0.000141051229112 0
0.00296126832588 -0.00249945553815 0
-0.000937622873681 -0.0393221151493 0
0.000384693666777 -0.000782041123495 0
-0.00147459328741 0.000106269532594 0
-0.00484693809277 -0.0122605672174 0
-0.000939405953967 -0.00448031694617 0
-0.00331186663505 -0.0251351970581 0
-0.000863606663645 0.000242184756844 0
-0.000877179470256 -0.000205954830418 0
0.000888629291088 0.000484984807862 0
-0.00104608038993 -0.00116289470001 0
-0.00245943769626 -0.0110032189415 0
-0.000907569990546 0.000330503071216 0
-0.000733044211067 4.94809054737e-05 0
0.00364410508024 -0.00211781566534 0
0.00204388213133 -0.000856592364339 0
0.00113736615922 -0.000349061982642 0
-0.000824419510722 -2.88098657819e-05 0
0.000824333907907 -0.00338247665704 0
-0.00157328397728 -0.00633442782005 0
-0.000852636155502 0.000282555772392 0
0.00519846802776 -0.0116534348117 0
0.00393470149801 -0.023503322572 0
-0.00114839969256 0.00026514111583 0
-0.00212125170359 -0.00157180342699 0
-0.00415763863159 -0.0116132170569 0
-0.000811410644982 0.000233227557313 0
-0.00211576599552 -0.00430394287417 0
-0.000893507518243 0.000259272445002 0
0.00112765052556 -0.0318150133504 0
-0.000889241232831 0.000328675016456 0
-0.00115372668029 -4.16234848928e-05 0
0.00154877455464 -0.000735602352468 0
0.00218438671447 -0.0239855651072 0
-0.000782305238926 3.24278272271e-05 0
-0.00154248881246 1.86906668119e-05 0
-0.00315102467659 -0.00317204460749 0
-0.00458290320518 -0.0159972172097 0
0.00250909764189 -0.019382952205 0
0.00376251468756 -0.0168660321153 0
-0.000808283100063 0.000363747033742 0
-0.000526799105119 -0.000531398497982 0
-0.00063889228371 -0.00777058391285 0
0.000662443072931 -0.0441808928123 0
0.00103891280688 -0.0413164501518 0
0.00280394709773 -0.0286537136589 0
-0.00109910709608 0.000197452960974 0
-0.00386323372027 -0.0162949631119 0
-0.00180127761299 -0.00250065380537 0
0.000110954489889 -0.0013302725242 0
-0.000882325473567 9.11976098942e-05 0
-0.000834584864892 0.000208757213514 0