# vtk DataFile Version 2.0
Generated with Solid Solver
ASCII
DATASET UNSTRUCTURED_GRID
POINTS 1163 float 
0.0 3.5 0.0
2.2 3.5 0.0
2.2 4.0 0.0
0.0 4.0 0.0
0.0687499999999 3.5 0.0
0.1375 3.5 0.0
0.20625 3.5 0.0
0.275 3.5 0.0
0.343749999999 3.5 0.0
0.412499999999 3.5 0.0
0.481249999999 3.5 0.0
0.549999999999 3.5 0.0
0.618749999998 3.5 0.0
0.687499999998 3.5 0.0
0.756249999998 3.5 0.0
0.824999999998 3.5 0.0
0.893749999998 3.5 0.0
0.962499999997 3.5 0.0
1.03125 3.5 0.0
1.1 3.5 0.0
1.16875 3.5 0.0
1.2375 3.5 0.0
1.30625 3.5 0.0
1.375 3.5 0.0
1.44375 3.5 0.0
1.5125 3.5 0.0
1.58125 3.5 0.0
1.65 3.5 0.0
1.71875 3.5 0.0
1.7875 3.5 0.0
1.85625 3.5 0.0
1.925 3.5 0.0
1.99375 3.5 0.0
2.0625 3.5 0.0
2.13125 3.5 0.0
2.2 3.56430812579 0.0
2.2 3.6227083524 0.0
2.2 3.67574343203 0.0
2.2 3.72390623714 0.0
2.2 3.76764438299 0.0
2.2 3.80736436348 0.0
2.2 3.84343531161 0.0
2.2 3.87619247056 0.0
2.2 3.90594026646 0.0
2.2 3.93295517223 0.0
2.2 3.9574882542 0.0
2.2 3.97976750927 0.0
2.18000003888 4.0 0.0
2.15999995974 4.0 0.0
2.13999995594 4.0 0.0
2.12000003893 4.0 0.0
2.0999999813 4.0 0.0
2.07999993507 4.0 0.0
2.06000001965 4.0 0.0
2.04000002354 4.0 0.0
2.01999993997 4.0 0.0
1.99999999426 4.0 0.0
1.98000004623 4.0 0.0
1.95999996625 4.0 0.0
1.93999996787 4.0 0.0
1.92000005069 4.0 0.0
1.90000001292 4.0 0.0
1.87999994967 4.0 0.0
1.86000003245 4.0 0.0
1.84000003166 4.0 0.0
1.81999995194 4.0 0.0
1.80000002065 4.0 0.0
1.78000005962 4.0 0.0
1.75999997703 4.0 0.0
1.73999998149 4.0 0.0
1.72000006236 4.0 0.0
1.70000000651 4.0 0.0
1.67999995967 4.0 0.0
1.66000004242 4.0 0.0
1.64000004304 4.0 0.0
1.61999996152 4.0 0.0
1.6000000096 4.0 0.0
1.58000006667 4.0 0.0
1.55999998704 4.0 0.0
1.53999998381 4.0 0.0
1.52000006764 4.0 0.0
1.5000000299 4.0 0.0
1.47999996242 4.0 0.0
1.46000004337 4.0 0.0
1.4400000454 4.0 0.0
1.41999996386 4.0 0.0
1.40000002834 4.0 0.0
1.38000006734 4.0 0.0
1.35999998576 4.0 0.0
1.33999998537 4.0 0.0
1.32000006658 4.0 0.0
1.30000001585 4.0 0.0
1.27999996279 4.0 0.0
1.26000004759 4.0 0.0
1.24000004493 4.0 0.0
1.2199999616 4.0 0.0
1.20000000906 4.0 0.0
1.18000006792 4.0 0.0
1.15999998616 4.0 0.0
1.13999999119 4.0 0.0
1.12000007157 4.0 0.0
1.1 4.0 0.0
1.07999992843 4.0 0.0
1.06000000881 4.0 0.0
1.04000001384 4.0 0.0
1.01999993209 4.0 0.0
0.999999990948 4.0 0.0
0.98000003841 4.0 0.0
0.959999955072 4.0 0.0
0.939999952416 4.0 0.0
0.920000037214 4.0 0.0
0.899999984154 4.0 0.0
0.879999933427 4.0 0.0
0.860000014636 4.0 0.0
0.840000014246 4.0 0.0
0.819999932662 4.0 0.0
0.79999997166 4.0 0.0
0.780000036145 4.0 0.0
0.759999954604 4.0 0.0
0.73999995663 4.0 0.0
0.72000003758 4.0 0.0
0.699999970103 4.0 0.0
0.679999932361 4.0 0.0
0.660000016189 4.0 0.0
0.640000012962 4.0 0.0
0.61999993333 4.0 0.0
0.599999990406 4.0 0.0
0.58000003848 4.0 0.0
0.559999956964 4.0 0.0
0.539999957581 4.0 0.0
0.520000040329 4.0 0.0
0.499999993489 4.0 0.0
0.479999937647 4.0 0.0
0.460000018512 4.0 0.0
0.440000022972 4.0 0.0
0.419999940378 4.0 0.0
0.399999979352 4.0 0.0
0.380000048063 4.0 0.0
0.359999968347 4.0 0.0
0.339999967553 4.0 0.0
0.320000050328 4.0 0.0
0.299999987077 4.0 0.0
0.279999949312 4.0 0.0
0.260000032129 4.0 0.0
0.240000033752 4.0 0.0
0.219999953776 4.0 0.0
0.200000005737 4.0 0.0
0.180000060031 4.0 0.0
0.159999976465 4.0 0.0
0.139999980354 4.0 0.0
0.120000064926 4.0 0.0
0.100000018697 4.0 0.0
0.0799999610675 4.0 0.0
0.0600000440571 4.0 0.0
0.0400000402596 4.0 0.0
0.0199999611169 4.0 0.0
0.0 3.97976750927 0.0
0.0 3.9574882542 0.0
0.0 3.93295517223 0.0
0.0 3.90594026646 0.0
0.0 3.87619247056 0.0
0.0 3.84343531161 0.0
0.0 3.80736436348 0.0
0.0 3.76764438299 0.0
0.0 3.72390623714 0.0
0.0 3.67574343203 0.0
0.0 3.6227083524 0.0
0.0 3.56430812579 0.0
0.249757963562 3.75212589829 0.0
1.94999996706 3.74954522137 0.0
0.488710285893 3.75947702441 0.0
0.726520490699 3.7655965719 0.0
0.967283134849 3.7597072979 0.0
1.20619032017 3.75831098673 0.0
1.45842774915 3.76733088374 0.0
1.69012076678 3.7622332834 0.0
0.130754044069 3.86878249167 0.0
2.06924595593 3.86878249167 0.0
1.8299999918 3.84622455633 0.0
1.56816462369 3.85034872999 0.0
0.369913859351 3.84868157925 0.0
0.608733620231 3.84706187144 0.0
1.33069778866 3.84790908234 0.0
0.84323446252 3.84762979148 0.0
1.08873170817 3.84705870913 0.0
0.250539365135 3.87785524304 0.0
1.94967747948 3.87849609822 0.0
1.73218750075 3.8916046151 0.0
0.468661874066 3.89189322974 0.0
1.47574192429 3.89639134117 0.0
0.704258110321 3.8963912684 0.0
1.18331258449 3.8976320365 0.0
0.949999953744 3.89208018478 0.0
1.64795374468 3.91749779939 0.0
0.548928463645 3.91905583847 0.0
1.38619509199 3.91928594438 0.0
0.788926872841 3.91906062101 0.0
1.27071160784 3.91777932845 0.0
1.02999997296 3.91685174433 0.0
1.81733541416 3.69950870754 0.0
1.86999999106 3.91823503401 0.0
0.071252620538 3.93011431841 0.0
2.12874737946 3.93011431841 0.0
2.07400690796 3.74293885365 0.0
0.125993092043 3.74293885365 0.0
0.32995676804 3.92118147353 0.0
2.00999996712 3.92542383197 0.0
0.190000032884 3.92542383197 0.0
1.56698738743 3.72218882919 0.0
1.33000000474 3.72531695685 0.0
0.848014510843 3.71986098938 0.0
1.09024665585 3.72285801424 0.0
0.610276609989 3.72290563624 0.0
1.54999998543 3.92414142844 0.0
0.629999973146 3.92414137652 0.0
0.869999974031 3.92414141814 0.0
1.11000003579 3.92414141267 0.0
1.79030638642 3.92649353654 0.0
0.370434802927 3.72513294336 0.0
0.410903135411 3.92892991244 0.0
1.33000002597 3.93737911571 0.0
0.129927648482 3.94112154503 0.0
2.07007235152 3.94112154503 0.0
1.93000000928 3.93875927586 0.0
0.26999999072 3.93875927586 0.0
1.40966706061 3.83880068991 0.0
0.770332962441 3.83880062149 0.0
1.24904900022 3.84293377683 0.0
1.01033287484 3.83880060723 0.0
0.530342681434 3.83880307444 0.0
0.189895273961 3.63486992823 0.0
2.00989835291 3.62845703161 0.0
0.998888153878 3.61665036233 0.0
1.47894673873 3.61675180774 0.0
0.51733910646 3.62937665489 0.0
0.705112628302 3.618743723 0.0
1.66672137035 3.63168728155 0.0
1.18508242495 3.61871739348 0.0
1.71000003443 3.94408608591 0.0
0.489999965568 3.94463856597 0.0
1.44983363802 3.94422347836 0.0
0.729999997105 3.94465012565 0.0
1.21016639734 3.94422345842 0.0
0.928621800545 3.94440037102 0.0
2.00626203014 3.81543543551 0.0
0.193627962274 3.81528928332 0.0
1.66628164144 3.83559795895 0.0
1.75661718781 3.81065958113 0.0
1.61143779865 3.94859227761 0.0
0.991673865748 3.95161238438 0.0
0.0604617941233 3.86281264864 0.0
2.13953820588 3.86281264865 0.0
0.300965570716 3.8114148258 0.0
0.2970894797 3.66361086085 0.0
0.398842167194 3.60449226805 0.0
1.51000004877 3.95218393067 0.0
1.90135619383 3.81213273629 0.0
0.669405272842 3.95495208979 0.0
1.07142780558 3.94866325309 0.0
0.592085094025 3.94901139323 0.0
0.831051660929 3.94633985879 0.0
1.14940528892 3.9549521224 0.0
0.44409344258 3.82719938178 0.0
1.49646539728 3.82376850413 0.0
0.683434082651 3.82631713605 0.0
0.92337834777 3.8234861632 0.0
1.16343437877 3.82631615351 0.0
1.90749084149 3.65350700271 0.0
1.8278758005 3.95083911942 0.0
0.37243073327 3.95235211027 0.0
1.29345662549 3.60569899261 0.0
0.813407949226 3.60572380122 0.0
1.29317153636 3.96216077293 0.0
1.367704599 3.96055764734 0.0
1.97071235041 3.96038324024 0.0
0.22928764959 3.96038324024 0.0
2.10610581798 3.66047411138 0.0
0.0938941820177 3.66047411138 0.0
1.67000000105 3.95862953468 0.0
1.74869816704 3.96079301687 0.0
0.531976761939 3.96138655466 0.0
0.451361042387 3.96112774725 0.0
0.771976832233 3.96138887156 0.0
1.88843481911 3.95881554986 0.0
1.61277513709 3.78538823015 0.0
2.13311214501 3.79435403671 0.0
0.0668878549946 3.79435403671 0.0
1.76678797151 3.60286552601 0.0
0.311702446283 3.9611157379 0.0
1.02877762737 3.96159282031 0.0
1.40830122607 3.96143175203 0.0
1.25214210333 3.957355862 0.0
1.59476493393 3.9048774062 0.0
1.56950979124 3.96148017208 0.0
0.890017020275 3.96125792969 0.0
2.03089110475 3.96040268709 0.0
0.169108895255 3.96040268709 0.0
0.939722125942 3.68539157065 0.0
1.41686981874 3.69192854313 0.0
0.0426348006718 3.96101756902 0.0
2.15736519933 3.96101756902 0.0
1.36077308019 3.79177204211 0.0
0.817982383499 3.78962669257 0.0
1.05834720932 3.78780184893 0.0
0.578349529346 3.78781530011 0.0
1.77992711518 3.87652731382 0.0
0.417982153133 3.87594990465 0.0
1.84363633012 3.77741329286 0.0
1.52244994479 3.87704541475 0.0
0.657426528912 3.87734838249 0.0
1.13742651778 3.87734834025 0.0
0.898116026439 3.8800466833 0.0
1.56984259435 3.64465823131 0.0
1.08983016076 3.6446495206 0.0
0.609942357805 3.64483976081 0.0
1.29451769374 3.79627773068 0.0
0.0893439668432 3.96574839433 0.0
2.11065603316 3.96574839433 0.0
2.01422398896 3.86980625824 0.0
0.185776011038 3.86980625824 0.0
0.305957237756 3.87340573745 0.0
1.72977480551 3.68665973332 0.0
1.25418096296 3.69351129461 0.0
0.629999973146 3.96272981435 0.0
1.11000003579 3.96272983221 0.0
0.772975283819 3.69297597031 0.0
1.89089074715 3.86951346173 0.0
0.445448577516 3.69456159386 0.0
1.82621986864 3.89678318705 0.0
2.07135424223 3.81165410377 0.0
0.128645757768 3.81165410377 0.0
0.373320289473 3.89968791662 0.0
1.79000004014 3.96541718891 0.0
0.383302070088 3.78976392323 0.0
0.409457623385 3.96502881851 0.0
1.55531527123 3.78787141386 0.0
1.34861332978 3.89383287415 0.0
0.593245985735 3.89483466551 0.0
0.833245353375 3.89479604398 0.0
1.0732444554 3.8948349405 0.0
0.911896623122 3.59194725763 0.0
0.187580554011 3.70699710313 0.0
2.01241944599 3.70699710313 0.0
1.39201907571 3.59233063354 0.0
2.09635520798 3.90516200201 0.0
0.103644792024 3.90516200201 0.0
1.89086147526 3.72621461413 0.0
1.02102684616 3.70044819701 0.0
1.49813234221 3.70194667869 0.0
0.53965669049 3.70593418829 0.0
1.63719578665 3.69772473547 0.0
0.685447658936 3.70127585046 0.0
1.16541741817 3.70128744764 0.0
0.901649266036 3.76287226775 0.0
0.992351690321 3.90662993531 0.0
1.69131894868 3.90657323657 0.0
1.9699561555 3.91599371502 0.0
0.230043844497 3.91599371502 0.0
1.61980840676 3.85005402918 0.0
2.04685187594 3.90639759008 0.0
0.153148124058 3.90639759008 0.0
0.512139828486 3.90538520837 0.0
1.43057458921 3.90702644399 0.0
0.749149996349 3.90689574876 0.0
[...]
POINT_DATA 1163
VECTORS Displacement float
0.0 0.0 0
0.0 0.0 0
0.00637750546684 -0.000671302396464 0
-0.00443230526751 -0.00118669688911 0
0.0 0.0 0
0.0 0.0 0
0.0 0.0 0
0.0 0.0 0
0.0 0.0 0
0.0 0.0 0
0.0 0.0 0
0.0 0.0 0
0.0 0.0 0
0.0 0.0 0
0.0 0.0 0
0.0 0.0 0
0.0 0.0 0
0.0 0.0 0
0.0 0.0 0
0.0 0.0 0
0.0 0.0 0
0.0 0.0 0
0.0 0.0 0
0.0 0.0 0
0.0 0.0 0
0.0 0.0 0
0.0 0.0 0
0.0 0.0 0
0.0 0.0 0
0.0 0.0 0
0.0 0.0 0
0.0 0.0 0
0.0 0.0 0
0.0 0.0 0
0.0 0.0 0
0.00508320847701 -0.00360462896993 0
0.00864440997032 -0.00448646195904 0
0.0110220030045 -0.00431420013144 0
0.0120936862558 -0.00364141870692 0
0.0123241901674 -0.00288478809575 0
0.0119785651118 -0.00214947289539 0
0.0112161771179 -0.00157671695956 0
0.0103510308264 -0.00115098610551 0
0.00940249771803 -0.000872241118558 0
0.00849977329308 -0.000740883991313 0
0.00769112918665 -0.000683248194065 0
0.00698914738247 -0.000669557602832 0
0.00637930188926 -0.00127063429584 0
0.00637385980299 -0.00184229054656 0
0.00634060762314 -0.00238873033516 0
0.0062648229718 -0.00291784349875 0
0.00613851676959 -0.00344837065748 0
0.00595791022336 -0.0040079565532 0
0.00570864958494 -0.00459842234116 0
0.00540838188912 -0.00527022601393 0
0.00503496557762 -0.00601698792421 0
0.00462459219898 -0.00688333186938 0
0.00413195845996 -0.00786592118638 0
0.00358742297488 -0.00902603111582 0
0.00302109580723 -0.0103698569229 0
0.00238168865024 -0.0119247120491 0
0.00175026745752 -0.0137246674774 0
0.00104731175908 -0.0157997329883 0
0.000320878226353 -0.0182225390327 0
-0.000381215419876 -0.021015551855 0
-0.00106966932467 -0.0242964175891 0
-0.00178171615155 -0.0281481772975 0
-0.00225350594776 -0.0327763819061 0
-0.00238800968001 -0.0382403956774 0
-0.00185120970487 -0.0456764262429 0
-0.000773454719149 -0.053830884803 0
0.000522757143103 -0.0613404783962 0
0.00163447106532 -0.0683857781739 0
0.00268467434944 -0.0749406141476 0
0.00350527276856 -0.0810558836895 0
0.00417450221019 -0.086712470334 0
0.00458616968387 -0.0919259564567 0
0.00482092515822 -0.096672322566 0
0.00497307835222 -0.100930760632 0
0.00492045176718 -0.104730619293 0
0.00471919523552 -0.108043956435 0
0.00436938144495 -0.110866617461 0
0.00390854396393 -0.113194981272 0
0.003335353892 -0.115020478808 0
0.00266552511002 -0.116337342343 0
0.00190314160504 -0.117139241126 0
0.000999663210822 -0.117426691216 0
0.000221781043886 -0.117165088584 0
-0.000497637418983 -0.116429289252 0
-0.00112879327113 -0.115170139945 0
-0.0016639663571 -0.11340004783 0
-0.00210657712555 -0.111123609324 0
-0.00241057899897 -0.108356735991 0
-0.00259656395098 -0.105093834848 0
-0.00262871677275 -0.101352080209 0
-0.00250727890082 -0.0971353731847 0
-0.00217252731108 -0.0924614851391 0
-0.00169152450506 -0.0873191601973 0
-0.00101007953899 -0.0817233360439 0
-0.000112361421525 -0.0756875001121 0
0.000971415222646 -0.0692082787617 0
0.00215523929472 -0.0622529275206 0
0.00355888849854 -0.0548557266814 0
0.00481592340947 -0.0468526290643 0
0.00570103478652 -0.0389153906991 0
0.0057057968412 -0.032974643617 0
0.00541939019253 -0.0281506495045 0
0.00498176340873 -0.0240623001232 0
0.00437219649812 -0.0205553461061 0
0.00373163949669 -0.0175547905824 0
0.00307048599947 -0.0149522327632 0
0.00247586568893 -0.0126982129606 0
0.00186505964698 -0.0107399390058 0
0.00131091701749 -0.00900916847169 0
0.000757070146077 -0.00750648575407 0
0.000238189637822 -0.00621191292148 0
-0.000243809094214 -0.00508992579795 0
-0.000692245152711 -0.00410954296682 0
-0.00111543120414 -0.0032698246507 0
-0.0014849652069 -0.00254242261004 0
-0.00183836539465 -0.0019236298799 0
-0.00215450888908 -0.00139193647144 0
-0.00244040342539 -0.000948046114883 0
-0.00269890218309 -0.000573062944282 0
-0.00292895999053 -0.000261378802014 0
-0.00312770257015 1.5884512399e-06 0
-0.00331135424859 0.000212897658398 0
-0.00346788318296 0.000384240915266 0
-0.00360994567833 0.000512972282733 0
-0.0037276888108 0.000613652153153 0
-0.00383297070183 0.000685880530879 0
-0.00392057879532 0.000736761278484 0
-0.00399898258259 0.000763609306763 0
-0.00406259098854 0.000775216532693 0
-0.00411707367686 0.000767300695521 0
-0.0041604718155 0.000749912382502 0
-0.00419932524879 0.00071898526163 0
-0.00423249453675 0.000677714511781 0
-0.00425856480375 0.000628036298081 0
-0.00428127511995 0.000569027149378 0
-0.00430008592592 0.0005036728769 0
-0.0043168846816 0.000431498565632 0
-0.0043307070104 0.000353794689876 0
-0.00434419093607 0.000270193156651 0
-0.0043558729799 0.000181276637172 0
-0.00436755327266 8.71635985806e-05 0
-0.00437857152247 -1.25008996133e-05 0
-0.00438814299443 -0.00011641119855 0
-0.00439784336852 -0.000224596073736 0
-0.00440624973967 -0.000336782834069 0
-0.00441427211064 -0.000452778509892 0
-0.00442067264965 -0.00057176088834 0
-0.00442591627078 -0.000693266899106 0
-0.00442962310797 -0.000816527158444 0
-0.00443158944361 -0.00094034095717 0
-0.00443228596404 -0.00106400483071 0
-0.00430856148963 -0.00118672216668 0
-0.00417318329632 -0.0011878801338 0
-0.00402435632062 -0.0011909730342 0
-0.00385815291637 -0.00119713388956 0
-0.00366955958995 -0.00120794136626 0
-0.00344810604787 -0.00122119166776 0
-0.0031906159813 -0.00123321804646 0
-0.00287437042002 -0.00124091225571 0
-0.00249121598895 -0.00122660677064 0
-0.00201911381153 -0.00116453598947 0
-0.00143720677633 -0.00101611773949 0
-0.000779839188072 -0.000706115593349 0
-0.00300420139552 8.90482848948e-05 0
0.014440134672 -0.00780439459553 0
-0.00449656924079 0.000351937417172 0
-0.00801027749813 -0.00223318969142 0
-0.0138229482754 -0.0165126535106 0
-0.0108247544764 -0.0438400656528 0
0.00502182888257 -0.0546562235976 0
0.0162992910574 -0.0333045372226 0
-0.00364364665096 -0.000385496402066 0
0.0109076481544 -0.00412746311583 0
0.0150781594303 -0.0206409184288 0
0.0116096011866 -0.0652620776284 0
-0.00397652162365 0.000568452124777 0
-0.00537736011854 8.27435354484e-05 0
-0.00343829357787 -0.0739796809006 0
-0.00878691832097 -0.00741370207552 0
-0.0136055493672 -0.0411581876499 0
-0.00380470802564 0.000209161213187 0
0.0113413828478 -0.00918953791997 0
0.0144264952362 -0.0410016543146 0
-0.0043014081722 0.000760504010959 0
0.00571873768016 -0.0858086841092 0
-0.0051435595185 -0.00133959748867 0
-0.00969305786034 -0.067884003912 0
-0.0087929904076 -0.018491226932 0
0.011996317025 -0.0644556692543 0
-0.00430281136312 0.000630064947322 0
0.000391653601945 -0.0946287564173 0
-0.00466258305615 -0.00428062211016 0
-0.00556394999033 -0.0862497990007 0
-0.00885394499695 -0.0341915290664 0
0.0153903737133 -0.0144542917802 0
0.00963905772432 -0.0165311036754 0
-0.00400879397789 -0.000744900135537 0
0.00861492149363 -0.00266884033598 0
0.0128466035728 -0.00373754425184 0
-0.00268280691284 -0.000391638958852 0
-0.0040666813997 0.000533891881731 0
0.00857354152855 -0.00613920481252 0
-0.00399841576358 -6.11359047273e-05 0
0.0109889783087 -0.0388094260562 0
-0.00363143552678 -0.0446969313151 0
-0.0109498631256 -0.00654006338763 0
-0.0137642909431 -0.0263365746239 0
-0.00586397697433 -0.000432534267551 0
0.00869113006413 -0.0846492715598 0
-0.004293735198 -6.83419833957e-06 0
-0.00480273427523 -0.0095468152975 0
-0.00914579996531 -0.0557325227889 0
0.0103751000172 -0.0296422568036 0
-0.00334642308951 0.000260898077662 0
-0.0041484853719 0.000746756726562 0
-0.00241589030067 -0.0972145915874 0
-0.00407497437396 -0.000390615910889 0
0.00804248752611 -0.0041417523262 0
0.00760401794856 -0.0107460776507 0
-0.00409050974417 0.000315189734215 0
0.00178333118791 -0.0734059282469 0
-0.00762504694697 -0.00357796906682 0
-0.00838312795277 -0.0659550584039 0
-0.0132943905867 -0.0263098299642 0
-0.00480691192087 0.000531479653548 0
-0.00163916631135 -0.000125957741706 0
0.00984919155402 -0.0033157932254 0
-0.00982024250485 -0.00941780764637 0
0.00397099851987 -0.0213627161532 0
-0.00339987664931 -0.00016947775929 0
-0.00566190593703 -0.00148027977658 0
0.0107888048892 -0.017372904582 0
-0.00800366851758 -0.0178928756021 0
0.00992912690497 -0.0519335869067 0
-0.00412846298117 0.000789148665897 0
0.00366324898213 -0.100168616444 0
-0.00358371883824 -0.00204062581483 0
-0.00634679136165 -0.0827578610234 0
-0.00343182551629 -0.0157968767605 0
0.0129573064271 -0.00600066709024 0
-0.00334651151751 -7.22836281943e-05 0
0.0157401624446 -0.0473203287731 0
0.0170335990046 -0.0294097136442 0
0.00903583600623 -0.078672247955 0
-0.00347200461709 -0.0262005156111 0
-0.00358594623378 -0.000811739002315 0
0.0109005688672 -0.00262704452784 0
-0.00358252577351 0.000319469958416 0
-0.0023261144953 5.05768994019e-05 0
-0.00204347776188 -4.25247099335e-05 0
0.00614029676733 -0.0970026618907 0
0.0147532677161 -0.0121672573493 0
-0.00355788490454 -0.000614155846723 0
-0.00613937855053 -0.0475007889975 0
-0.00394658152065 0.000371533026347 0
-0.00311311181849 -0.00665249058427 0
-0.00605733928653 -0.0709683407024 0
-0.00428091478494 0.00062109129734 0
0.00767428702407 -0.0661957246625 0
-0.0065315960993 -0.00106250590193 0
-0.0117382985164 -0.0140715053839 0
-0.0124817309101 -0.0511243473211 0
0.0124091248094 -0.00700147538681 0
0.00665133212076 -0.0226837903341 0
-0.00415203453102 0.000670734017903 0
-0.00392887350702 -0.0187023430158 0
-0.00696232569027 -0.00305755478939 0
-0.00336456263456 -0.100272778734 0
-0.00037900534491 -0.105551748197 0
0.00633855449663 -0.00812709456733 0
-0.0041775814499 0.000135583479071 0
0.0106171196458 -0.00281486409779 0
-0.0018239238322 -0.000454766513522 0
0.00840810564607 -0.0656374843242 0
0.00687168176842 -0.0412615291265 0
-0.00397759054636 0.000696063241383 0
-0.00411593464217 0.000797679038248 0
-0.00262319790959 -0.00356268240863 0
0.00564804220529 -0.0145708769923 0
0.014087838701 -0.0465278211869 0
0.0124385564262 -0.00302107067899 0
-0.00309347412051 -0.000755457595617 0
0.0101504942355 -0.00945414310076 0
-0.00417635858596 0.000480448027914 0
-0.00292305213489 -0.0352713680423 0
0.00152912553402 -0.106313764787 0
-0.00475896795193 -0.0933468546908 0
0.0112268411206 -0.0729375337708 0
0.00746241078708 -0.0901382221274 0
-0.00164910518762 -0.0114319025359 0
0.00695749357706 -0.00541286585469 0
-0.00418126302281 -0.000170723355563 0
-0.0122123090774 -0.0106643725057 0
0.00179031138803 -0.0380965906684 0
-0.00419451064301 -0.000923668096842 0
0.00756765293504 -0.00191560838549 0
-0.00165749509524 -0.061174250035 0
-0.00981587671968 -0.00571942243667 0
-0.0146891108934 -0.0297381077126 0
-0.0054811586905 0.000111258506862 0
0.0146537664939 -0.029902549765 0
-0.00417450078226 0.000702979798596 0
0.0162790901651 -0.0163728101463 0
0.00867727155229 -0.0767526056223 0
-0.00529451585416 -0.000454748432429 0
-0.0118276268865 -0.0550756943435 0
-0.00834593093861 -0.0120939859852 0
0.00862819559222 -0.024083177933 0
-0.0110014548329 -0.0168594513043 0
-0.00482218061362 -0.000600213601392 0
-0.00603432152712 -0.0592975246217 0
-0.00421953729136 -0.000634020618843 0
0.00728631367316 -0.00310983367814 0
0.0111622121479 -0.00586406653745 0
-0.00368677782913 -9.21623417343e-05 0
-0.00387970633343 0.000418766253186 0
0.0147330353101 -0.0201245145871 0
-0.00764162544542 -0.0346618750074 0
-0.00360352883892 -3.2337027865e-05 0
-0.00479521647057 -0.0610030725744 0
-0.008814173407 -0.0033052837302 0
0.0127348239121 -0.013884143307 0
-0.00363964269031 0.000162905564221 0
0.0122863864426 -0.0224522407153 0
0.0124601105804 -0.00402959708084 0
-0.0032494145532 -0.000393385515503 0
-0.00407917179588 0.000645720527633 0
0.00495127634237 -0.0302187561587 0
-0.00382881868511 0.00046095985198 0
-0.00415142070404 0.000750126986079 0
0.0111535269007 -0.0531449385205 0
-0.00192667420183 -0.0866626601527 0
-0.00467542381679 0.000335685098695 0
-0.00631926642232 -0.00676627087289 0
-0.011345413331 -0.0430596945004 0
-0.00759168698425 -0.00489295036127 0
-0.00242591326767 -0.000134084250501 0
0.0129069007731 -0.00469976752012 0
0.000120403605397 -0.0171068553047 0
0.00952984042415 -0.00344808805458 0
-0.00386127001215 -0.000544848277515 0
0.0151488714466 -0.010545184717 0
-0.0135476125618 -0.0176494341979 0
0.00686228221298 -0.0383846889813 0
-0.00474094523308 -1.31577443035e-05 0
0.0132039759384 -0.0291213594038 0
-0.00701717805816 -0.00143998328946 0
-0.0114937114983 -0.0301007082074 0
-0.012325043044 -0.0108140552937 0
-0.00870800963501 -0.0257959700706 0
0.0133174683092 -0.0524150011549 0
0.00909779040619 -0.00805857391715 0
-0.00396997274122 0.00013331843135 0
0.0139458293135 -0.0575942045561 0
0.00948935320207 -0.00478780247117 0
-0.00388080684756 -0.00025959254206 0
-0.00434842789886 0.000729739280401 0
0.00299103775619 -0.0909132879236 0
-0.00503734085898 -0.0026501145871 0
-0.00755572624178 -0.0785595804994 0
0.0123649261538 -0.003170776916 0
-0.00250112198639 -0.000730030260535 0
-0.000822390674341 -0.0200059055261 0
-0.00382665741413 -0.000937137131895 0
0.00965379195604 -0.00203336069392 0
0.00453824978736 -0.104295893557 0
-0.00303609122811 -0.00131975963783 0
-0.00499105923587 -0.081361898611 0
-0.00352370670448 0.000154780821504 0
-0.00325870887902 0.000243543054678 0
-0.00584806398019 -0.0765554838187 0
0.013371356423 -0.008623374593 0
-0.00195482833714 -0.104805869617 0
0.0167557395337 -0.0229898423756 0
-0.0139766716773 -0.0368738829037 0
-0.00633233113735 -0.000517538869227 0
0.00550426343508 -0.0941719163405 0
-0.00412841799008 -0.00116492143314 0
-0.00791139255417 -0.0732090561736 0
0.00752912554985 -0.0758005298613 0
-0.0110479435889 -0.00916838870746 0
0.00850194197391 -0.00538478595505 0
0.00553900049314 -0.0108581623058 0
-0.00419413351031 0.000317196287941 0
-0.00385241919696 0.000568211170191 0
-0.00209358596399 -0.00480311222739 0
0.00665211341478 -0.0958663097737 0
-0.00153436230872 -0.00891103581181 0
0.00440679256157 -0.017624092508 0
0.00705350338183 -0.00419429426674 0
-0.00421417072139 -0.000390114692148 0
-0.00419351050063 0.000567828864018 0
0.0164764126251 -0.0385640885043 0
0.00622672382187 -0.00677666531555 0
-0.00421592440672 9.5805234952e-07 0
-0.00448635951803 0.000657303429637 0
0.00501028330982 -0.0738160035899 0
-0.00669443404314 -0.00193272901358 0
-0.0108593758963 -0.0590889635296 0
-0.0119278162665 -0.0193139751521 0
0.00784836887615 -0.00350614294123 0
-0.00110481140879 -6.31081146399e-05 0
0.0122575498822 -0.0384348679473 0
-0.00557576035936 -0.0208862410939 0
-0.00419636230365 0.000785246240918 0
-0.00409702769792 -0.0873226881418 0
-0.00697036841374 -0.00476556089206 0
-0.0123278383817 -0.0333053413781 0
-0.00477287749367 0.000509963204207 0
-0.000873427921843 -0.00017618681855 0
0.00605928781301 -0.00173102848206 0
-0.00131543732896 -4.67378084722e-05 0
0.0101387925554 -0.0129300109325 0
-0.00398165326645 0.000406582666764 0
0.00803782822547 -0.0521388072752 0
5.14691194666e-05 -0.0817364695617 0
-0.0062293225186 -0.0132658311945 0
-0.00393506466265 0.000360729867762 0
0.0075419971791 -0.0872943158364 0
-0.0044585919162 -0.000517732835146 0
-0.00940799413144 -0.0632995767906 0
0.0117294424135 -0.00344536090576 0
-0.0034235463698 -0.000565246687716 0
0.00646426685429 -0.0547110647629 0
0.00919693826702 -0.0825605312511 0
0.0132872509412 -0.00491562770572 0
-0.00297267411868 -0.000188779808535 0
-0.00403737635665 0.000781625305734 0
0.00356063509037 -0.106002179391 0
-0.00284843459997 -0.00195776809616 0
-0.000618589245259 -0.0163647880757 0
-0.00497412358503 -0.0867625967458 0
-0.00756972481501 -0.0459748493977 0
0.0146561530004 -0.0536674135246 0
0.0118856411118 -0.00253935855165 0
-0.00329227336864 -0.00094259303447 0
0.000386567021461 -0.0469976626148 0
0.00526286811489 -0.00855081950885 0
0.0167256987151 -0.0223264599202 0
-0.00557800429555 -0.00796171860364 0
-0.00270817736275 -0.0308476316405 0
-0.00291059378366 -0.000695291344681 0
-0.00993973314664 -0.00560813317211 0
-0.00234281590114 1.4482404286e-05 0
-0.0094074214524 -0.00398642793726 0
-0.00375431878969 0.000444353511179 0
0.0107897993323 -0.0729724982997 0
-0.00184531757346 -0.000121290774049 0
-0.000986467039023 -0.000460560545338 0
0.00649557168705 -0.0022628592915 0
0.0072611704412 -0.00248574264865 0
-0.00424182424493 -0.000787409883717 0
0.012545906073 -0.0174117951274 0
-0.00456286345068 -0.0122190035173 0
-0.00460501550489 -0.00154391840358 0
-0.00400481032346 -0.000998145372313 0
0.00864019183922 -0.00166885076265 0
-0.0024937814219 -0.000307581138432 0
0.0130956717326 -0.00651572334519 0
-0.00271395399138 9.9307033715e-05 0
-0.00726186727186 -0.00739058589761 0
0.00413960179246 -0.0132816018458 0
-0.00492025339914 0.000362563001455 0
-0.00396027929918 0.000511444762638 0
0.0029285889686 -0.0598086050326 0
-0.01437057608 -0.0224973263392 0
0.00676658741827 -0.0848782816024 0
0.000494708871564 -0.0259987942149 0
-0.0012769402397 -0.0944695254078 0
0.0119643601412 -0.00493322391318 0
-0.00349023157539 -0.000224160740829 0
0.00717899602939 -0.00785824173977 0
-0.00883730910091 -0.0538324836518 0
-0.000765005375776 -0.0418772570986 0
-0.00861946961092 -0.00327824623859 0
-0.00836961562699 -0.00522522249378 0
-0.0136004178027 -0.0327150437725 0
-0.00503318426618 0.000411813261526 0
-0.000809380542381 -0.0729788600657 0
0.000717596491408 -0.111271404284 0
-0.0034609865263 -0.101023263978 0
0.0128057920865 -0.00933617743849 0
0.00838040856068 -0.00335978151815 0
-0.00403803838145 -0.000565515813694 0
-0.00358252480499 0.000219727076505 0
-0.0032688664671 -0.000387935655447 0
-0.00327332383317 -0.0544636403044 0
-0.00384755003841 -0.0696834131978 0
-0.00226359697281 -0.000333097553939 0
0.0122057045463 -0.00348229299168 0
0.0166935402076 -0.0381318157595 0
0.00953727746235 -0.00274240176331 0
-0.00385373341749 -0.000736698544095 0
0.0146228162988 -0.0149627810862 0
0.00519143452017 -0.104586553816 0
-0.000645632315299 -0.00671580333408 0
-0.0070795214335 -0.00120280896171 0
-0.0128122232174 -0.0426769325191 0
0.00349701291279 -0.0253151300095 0
-0.00753916891776 -0.0730335830986 0
-0.0041766318028 0.000703482838161 0
-0.00426409532144 -0.00102139957297 0
0.00721236883367 -0.00147409213881 0
-0.00699876547214 -0.00914686131987 0
-0.0116431339801 -0.0502406458215 0
-0.0048743937003 6.20789310699e-06 0
-0.00365972540206 7.42928463062e-05 0
0.0155718289137 -0.0122245402115 0
0.011593100017 -0.00732149718789 0
0.00827914210474 -0.00487759188716 0
-0.00403455545167 -0.000247501929501 0
0.00920842412875 -0.0200261388486 0
0.00317250097927 -0.0351491876617 0
-0.00413104325326 0.000773504613468 0
0.0156968571194 -0.0422636667828 0
0.00977439777486 -0.0668505996982 0
-0.00587864083006 -0.000384191359184 0
-0.0104575311989 -0.0109081541767 0
-0.0133760538139 -0.0463995092085 0
-0.00410393101035 0.000617719621694 0
-0.0115568262537 -0.024240666314 0
-0.00451486892724 0.000527859476475 0
0.00313962572976 -0.0808768636101 0
-0.00454986563868 0.000674289804058 0
-0.00638469394995 -0.00274438465645 0
0.0099441583072 -0.00679295830471 0
0.00528117487366 -0.063340997627 0
-0.00386302154577 7.31849351472e-06 0
-0.00750775419751 -0.00199512735986 0
-0.0132303860425 -0.0176858697816 0
-0.0112207209774 -0.0517779508486 0
0.0111955201401 -0.0712441838323 0
0.0132760277819 -0.0626081122256 0
-0.00426495070934 0.000495047701343 0
-0.00448720098834 -0.00564564786485 0
-0.00910902889974 -0.0418041145338 0
-0.00101822683518 -0.109734973634 0
-0.00238270051208 -0.106615564861 0
0.00697779789339 -0.0762775442507 0
-0.00587362386423 -0.00109444720484 0
-0.011427830537 -0.0592428326819 0
-0.0101090567327 -0.0158427275206 0
0.0047533017628 -0.00956374715435 0
-0.00425817178423 0.00023460368666 0
-0.00410681889534 0.000618007610506 0
0.0149042958468 -0.036243434234 0
0.00236317793652 -0.0987170308266 0
-0.00614387269152 -0.0857476206834 0
0.0158382715791 -0.0351668240096 0
0.00402801808828 -0.0125251060963 0
-0.00310389588162 -0.000837817533159 0
-0.0044151210112 -0.0765117339598 0
0.0138529045534 -0.00719982056841 0
-0.0032440431733 4.78687411967e-05 0
-0.0144998288709 -0.0227429769951 0
-0.00365222192451 -0.000974162205059 0
0.0105370203103 -0.00205857846712 0
-0.00388213731766 0.000487661228809 0
-0.00521198286108 7.65847346593e-05 0
-0.00424423476224 0.000394830248837 0