# vtk DataFile Version 2.0
Generated with Solid Solver
ASCII
DATASET UNSTRUCTURED_GRID
POINTS 1163 float 
0.0 3.5 0.0
2.2 3.5 0.0
2.2 4.0 0.0
0.0 4.0 0.0
0.0687499999999 3.5 0.0
0.1375 3.5 0.0
0.20625 3.5 0.0
0.275 3.5 0.0
0.343749999999 3.5 0.0
0.412499999999 3.5 0.0
0.481249999999 3.5 0.0
0.549999999999 3.5 0.0
0.618749999998 3.5 0.0
0.687499999998 3.5 0.0
0.756249999998 3.5 0.0
0.824999999998 3.5 0.0
0.893749999998 3.5 0.0
0.962499999997 3.5 0.0
1.03125 3.5 0.0
1.1 3.5 0.0
1.16875 3.5 0.0
1.2375 3.5 0.0
1.30625 3.5 0.0
1.375 3.5 0.0
1.44375 3.5 0.0
1.5125 3.5 0.0
1.58125 3.5 0.0
1.65 3.5 0.0
1.71875 3.5 0.0
1.7875 3.5 0.0
1.85625 3.5 0.0
1.925 3.5 0.0
1.99375 3.5 0.0
2.0625 3.5 0.0
2.13125 3.5 0.0
2.2 3.56430812579 0.0
2.2 3.6227083524 0.0
2.2 3.67574343203 0.0
2.2 3.72390623714 0.0
2.2 3.76764438299 0.0
2.2 3.80736436348 0.0
2.2 3.84343531161 0.0
2.2 3.87619247056 0.0
2.2 3.90594026646 0.0
2.2 3.93295517223 0.0
2.2 3.9574882542 0.0
2.2 3.97976750927 0.0
2.18000003888 4.0 0.0
2.15999995974 4.0 0.0
2.13999995594 4.0 0.0
2.12000003893 4.0 0.0
2.0999999813 4.0 0.0
2.07999993507 4.0 0.0
2.06000001965 4.0 0.0
2.04000002354 4.0 0.0
2.01999993997 4.0 0.0
1.99999999426 4.0 0.0
1.98000004623 4.0 0.0
1.95999996625 4.0 0.0
1.93999996787 4.0 0.0
1.92000005069 4.0 0.0
1.90000001292 4.0 0.0
1.87999994967 4.0 0.0
1.86000003245 4.0 0.0
1.84000003166 4.0 0.0
1.81999995194 4.0 0.0
1.80000002065 4.0 0.0
1.78000005962 4.0 0.0
1.75999997703 4.0 0.0
1.73999998149 4.0 0.0
1.72000006236 4.0 0.0
1.70000000651 4.0 0.0
1.67999995967 4.0 0.0
1.66000004242 4.0 0.0
1.64000004304 4.0 0.0
1.61999996152 4.0 0.0
1.6000000096 4.0 0.0
1.58000006667 4.0 0.0
1.55999998704 4.0 0.0
1.53999998381 4.0 0.0
1.52000006764 4.0 0.0
1.5000000299 4.0 0.0
1.47999996242 4.0 0.0
1.46000004337 4.0 0.0
1.4400000454 4.0 0.0
1.41999996386 4.0 0.0
1.40000002834 4.0 0.0
1.38000006734 4.0 0.0
1.35999998576 4.0 0.0
1.33999998537 4.0 0.0
1.32000006658 4.0 0.0
1.30000001585 4.0 0.0
1.27999996279 4.0 0.0
1.26000004759 4.0 0.0
1.24000004493 4.0 0.0
1.2199999616 4.0 0.0
1.20000000906 4.0 0.0
1.18000006792 4.0 0.0
1.15999998616 4.0 0.0
1.13999999119 4.0 0.0
1.12000007157 4.0 0.0
1.1 4.0 0.0
1.07999992843 4.0 0.0
1.06000000881 4.0 0.0
1.04000001384 4.0 0.0
1.01999993209 4.0 0.0
0.999999990948 4.0 0.0
0.98000003841 4.0 0.0
0.959999955072 4.0 0.0
0.939999952416 4.0 0.0
0.920000037214 4.0 0.0
0.899999984154 4.0 0.0
0.879999933427 4.0 0.0
0.860000014636 4.0 0.0
0.840000014246 4.0 0.0
0.819999932662 4.0 0.0
0.79999997166 4.0 0.0
0.780000036145 4.0 0.0
0.759999954604 4.0 0.0
0.73999995663 4.0 0.0
0.72000003758 4.0 0.0
0.699999970103 4.0 0.0
0.679999932361 4.0 0.0
0.660000016189 4.0 0.0
0.640000012962 4.0 0.0
0.61999993333 4.0 0.0
0.599999990406 4.0 0.0
0.58000003848 4.0 0.0
0.559999956964 4.0 0.0
0.539999957581 4.0 0.0
0.520000040329 4.0 0.0
0.499999993489 4.0 0.0
0.479999937647 4.0 0.0
0.460000018512 4.0 0.0
0.440000022972 4.0 0.0
0.419999940378 4.0 0.0
0.399999979352 4.0 0.0
0.380000048063 4.0 0.0
0.359999968347 4.0 0.0
0.339999967553 4.0 0.0
0.320000050328 4.0 0.0
0.299999987077 4.0 0.0
0.279999949312 4.0 0.0
0.260000032129 4.0 0.0
0.240000033752 4.0 0.0
0.219999953776 4.0 0.0
0.200000005737 4.0 0.0
0.180000060031 4.0 0.0
0.159999976465 4.0 0.0
0.139999980354 4.0 0.0
0.120000064926 4.0 0.0
0.100000018697 4.0 0.0
0.0799999610675 4.0 0.0
0.0600000440571 4.0 0.0
0.0400000402596 4.0 0.0
0.0199999611169 4.0 0.0
0.0 3.97976750927 0.0
0.0 3.9574882542 0.0
0.0 3.93295517223 0.0
0.0 3.90594026646 0.0
0.0 3.87619247056 0.0
0.0 3.84343531161 0.0
0.0 3.80736436348 0.0
0.0 3.76764438299 0.0
0.0 3.72390623714 0.0
0.0 3.67574343203 0.0
0.0 3.6227083524 0.0
0.0 3.56430812579 0.0
0.249757963562 3.75212589829 0.0
1.94999996706 3.74954522137 0.0
0.488710285893 3.75947702441 0.0
0.726520490699 3.7655965719 0.0
0.967283134849 3.7597072979 0.0
1.20619032017 3.75831098673 0.0
1.45842774915 3.76733088374 0.0
1.69012076678 3.7622332834 0.0
0.130754044069 3.86878249167 0.0
2.06924595593 3.86878249167 0.0
1.8299999918 3.84622455633 0.0
1.56816462369 3.85034872999 0.0
0.369913859351 3.84868157925 0.0
0.608733620231 3.84706187144 0.0
1.33069778866 3.84790908234 0.0
0.84323446252 3.84762979148 0.0
1.08873170817 3.84705870913 0.0
0.250539365135 3.87785524304 0.0
1.94967747948 3.87849609822 0.0
1.73218750075 3.8916046151 0.0
0.468661874066 3.89189322974 0.0
1.47574192429 3.89639134117 0.0
0.704258110321 3.8963912684 0.0
1.18331258449 3.8976320365 0.0
0.949999953744 3.89208018478 0.0
1.64795374468 3.91749779939 0.0
0.548928463645 3.91905583847 0.0
1.38619509199 3.91928594438 0.0
0.788926872841 3.91906062101 0.0
1.27071160784 3.91777932845 0.0
1.02999997296 3.91685174433 0.0
1.81733541416 3.69950870754 0.0
1.86999999106 3.91823503401 0.0
0.071252620538 3.93011431841 0.0
2.12874737946 3.93011431841 0.0
2.07400690796 3.74293885365 0.0
0.125993092043 3.74293885365 0.0
0.32995676804 3.92118147353 0.0
2.00999996712 3.92542383197 0.0
0.190000032884 3.92542383197 0.0
1.56698738743 3.72218882919 0.0
1.33000000474 3.72531695685 0.0
0.848014510843 3.71986098938 0.0
1.09024665585 3.72285801424 0.0
0.610276609989 3.72290563624 0.0
1.54999998543 3.92414142844 0.0
0.629999973146 3.92414137652 0.0
0.869999974031 3.92414141814 0.0
1.11000003579 3.92414141267 0.0
1.79030638642 3.92649353654 0.0
0.370434802927 3.72513294336 0.0
0.410903135411 3.92892991244 0.0
1.33000002597 3.93737911571 0.0
0.129927648482 3.94112154503 0.0
2.07007235152 3.94112154503 0.0
1.93000000928 3.93875927586 0.0
0.26999999072 3.93875927586 0.0
1.40966706061 3.83880068991 0.0
0.770332962441 3.83880062149 0.0
1.24904900022 3.84293377683 0.0
1.01033287484 3.83880060723 0.0
0.530342681434 3.83880307444 0.0
0.189895273961 3.63486992823 0.0
2.00989835291 3.62845703161 0.0
0.998888153878 3.61665036233 0.0
1.47894673873 3.61675180774 0.0
0.51733910646 3.62937665489 0.0
0.705112628302 3.618743723 0.0
1.66672137035 3.63168728155 0.0
1.18508242495 3.61871739348 0.0
1.71000003443 3.94408608591 0.0
0.489999965568 3.94463856597 0.0
1.44983363802 3.94422347836 0.0
0.729999997105 3.94465012565 0.0
1.21016639734 3.94422345842 0.0
0.928621800545 3.94440037102 0.0
2.00626203014 3.81543543551 0.0
0.193627962274 3.81528928332 0.0
1.66628164144 3.83559795895 0.0
1.75661718781 3.81065958113 0.0
1.61143779865 3.94859227761 0.0
0.991673865748 3.95161238438 0.0
0.0604617941233 3.86281264864 0.0
2.13953820588 3.86281264865 0.0
0.300965570716 3.8114148258 0.0
0.2970894797 3.66361086085 0.0
0.398842167194 3.60449226805 0.0
1.51000004877 3.95218393067 0.0
1.90135619383 3.81213273629 0.0
0.669405272842 3.95495208979 0.0
1.07142780558 3.94866325309 0.0
0.592085094025 3.94901139323 0.0
0.831051660929 3.94633985879 0.0
1.14940528892 3.9549521224 0.0
0.44409344258 3.82719938178 0.0
1.49646539728 3.82376850413 0.0
0.683434082651 3.82631713605 0.0
0.92337834777 3.8234861632 0.0
1.16343437877 3.82631615351 0.0
1.90749084149 3.65350700271 0.0
1.8278758005 3.95083911942 0.0
0.37243073327 3.95235211027 0.0
1.29345662549 3.60569899261 0.0
0.813407949226 3.60572380122 0.0
1.29317153636 3.96216077293 0.0
1.367704599 3.96055764734 0.0
1.97071235041 3.96038324024 0.0
0.22928764959 3.96038324024 0.0
2.10610581798 3.66047411138 0.0
0.0938941820177 3.66047411138 0.0
1.67000000105 3.95862953468 0.0
1.74869816704 3.96079301687 0.0
0.531976761939 3.96138655466 0.0
0.451361042387 3.96112774725 0.0
0.771976832233 3.96138887156 0.0
1.88843481911 3.95881554986 0.0
1.61277513709 3.78538823015 0.0
2.13311214501 3.79435403671 0.0
0.0668878549946 3.79435403671 0.0
1.76678797151 3.60286552601 0.0
0.311702446283 3.9611157379 0.0
1.02877762737 3.96159282031 0.0
1.40830122607 3.96143175203 0.0
1.25214210333 3.957355862 0.0
1.59476493393 3.9048774062 0.0
1.56950979124 3.96148017208 0.0
0.890017020275 3.96125792969 0.0
2.03089110475 3.96040268709 0.0
0.169108895255 3.96040268709 0.0
0.939722125942 3.68539157065 0.0
1.41686981874 3.69192854313 0.0
0.0426348006718 3.96101756902 0.0
2.15736519933 3.96101756902 0.0
1.36077308019 3.79177204211 0.0
0.817982383499 3.78962669257 0.0
1.05834720932 3.78780184893 0.0
0.578349529346 3.78781530011 0.0
1.77992711518 3.87652731382 0.0
0.417982153133 3.87594990465 0.0
1.84363633012 3.77741329286 0.0
1.52244994479 3.87704541475 0.0
0.657426528912 3.87734838249 0.0
1.13742651778 3.87734834025 0.0
0.898116026439 3.8800466833 0.0
1.56984259435 3.64465823131 0.0
1.08983016076 3.6446495206 0.0
0.609942357805 3.64483976081 0.0
1.29451769374 3.79627773068 0.0
0.0893439668432 3.96574839433 0.0
2.11065603316 3.96574839433 0.0
2.01422398896 3.86980625824 0.0
0.185776011038 3.86980625824 0.0
0.305957237756 3.87340573745 0.0
1.72977480551 3.68665973332 0.0
1.25418096296 3.69351129461 0.0
0.629999973146 3.96272981435 0.0
1.11000003579 3.96272983221 0.0
0.772975283819 3.69297597031 0.0
1.89089074715 3.86951346173 0.0
0.445448577516 3.69456159386 0.0
1.82621986864 3.89678318705 0.0
2.07135424223 3.81165410377 0.0
0.128645757768 3.81165410377 0.0
0.373320289473 3.89968791662 0.0
1.79000004014 3.96541718891 0.0
0.383302070088 3.78976392323 0.0
0.409457623385 3.96502881851 0.0
1.55531527123 3.78787141386 0.0
1.34861332978 3.89383287415 0.0
0.593245985735 3.89483466551 0.0
0.833245353375 3.89479604398 0.0
1.0732444554 3.8948349405 0.0
0.911896623122 3.59194725763 0.0
0.187580554011 3.70699710313 0.0
2.01241944599 3.70699710313 0.0
1.39201907571 3.59233063354 0.0
2.09635520798 3.90516200201 0.0
0.103644792024 3.90516200201 0.0
1.89086147526 3.72621461413 0.0
1.02102684616 3.70044819701 0.0
1.49813234221 3.70194667869 0.0
0.53965669049 3.70593418829 0.0
1.63719578665 3.69772473547 0.0
0.685447658936 3.70127585046 0.0
1.16541741817 3.70128744764 0.0
0.901649266036 3.76287226775 0.0
0.992351690321 3.90662993531 0.0
1.69131894868 3.90657323657 0.0
1.9699561555 3.91599371502 0.0
0.230043844497 3.91599371502 0.0
1.61980840676 3.85005402918 0.0
2.04685187594 3.90639759008 0.0
0.153148124058 3.90639759008 0.0
0.512139828486 3.90538520837 0.0
1.43057458921 3.90702644399 0.0
0.749149996349 3.90689574876 0.0
[...]
POINT_DATA 1163
VECTORS Displacement float
0.0 0.0 0
0.0 0.0 0
0.00665606917928 -0.000440763238611 0
-0.00583185097837 -0.00106736995066 0
0.0 0.0 0
0.0 0.0 0
0.0 0.0 0
0.0 0.0 0
0.0 0.0 0
0.0 0.0 0
0.0 0.0 0
0.0 0.0 0
0.0 0.0 0
0.0 0.0 0
0.0 0.0 0
0.0 0.0 0
0.0 0.0 0
0.0 0.0 0
0.0 0.0 0
0.0 0.0 0
0.0 0.0 0
0.0 0.0 0
0.0 0.0 0
0.0 0.0 0
0.0 0.0 0
0.0 0.0 0
0.0 0.0 0
0.0 0.0 0
0.0 0.0 0
0.0 0.0 0
0.0 0.0 0
0.0 0.0 0
0.0 0.0 0
0.0 0.0 0
0.0 0.0 0
0.0025154564134 -0.00175016451934 0
0.00442556352489 -0.00216107901537 0
0.00583016086688 -0.00205979511241 0
0.00664202877893 -0.00173038083559 0
0.0070662730583 -0.00137184083852 0
0.00722496932608 -0.00104089867267 0
0.00720005096093 -0.000792913818723 0
0.00711832117962 -0.000617725474666 0
0.00699479789198 -0.000509454740071 0
0.00687629852246 -0.000462225993721 0
0.00678088362992 -0.000442992648114 0
0.00671001019567 -0.0004397968442 0
0.00665704272512 -0.000492622933207 0
0.00665662020738 -0.000533685447881 0
0.00664641383792 -0.000562538448852 0
0.00662087055897 -0.000580669031977 0
0.0065755008794 -0.000593091936756 0
0.00650715091602 -0.000610495042209 0
0.00641095161522 -0.000630347779758 0
0.00628980946729 -0.000674127066516 0
0.00613671578452 -0.00073386046296 0
0.00596132925765 -0.000830787886206 0
0.00574606840938 -0.000959936756284 0
0.00550262433093 -0.0011410389999 0
0.00523558232506 -0.001380613325 0
0.00492779187228 -0.00167647172773 0
0.00460032277224 -0.00205097201876 0
0.00422514163015 -0.00250028750105 0
0.00382441816239 -0.00305114090414 0
0.00338701604361 -0.00369643601909 0
0.0029220683055 -0.00447181398955 0
0.00239841682277 -0.00537919123064 0
0.00185811390216 -0.00644350664732 0
0.00131292251152 -0.0076798618576 0
0.000704247219967 -0.00909254822682 0
8.49659648572e-05 -0.0107367227425 0
-0.000597692003017 -0.0126405025392 0
-0.00123817748753 -0.0148268204613 0
-0.001935896771 -0.0173442280635 0
-0.00264887350522 -0.0202741564253 0
-0.00332911611578 -0.0236591177864 0
-0.00384156203564 -0.0275827255494 0
-0.00422756031422 -0.0321868207835 0
-0.0046825709019 -0.0376208081918 0
-0.00357342489193 -0.0463555315459 0
-0.00225244675843 -0.0543444338317 0
-0.000950270302095 -0.0618135085033 0
0.000273831222694 -0.0687872354694 0
0.00134137173709 -0.0753059771418 0
0.0022752193984 -0.0813570154005 0
0.00294338779343 -0.0869840138769 0
0.00346178601461 -0.0921433133417 0
0.00377932938802 -0.0968509880751 0
0.003940640057 -0.101087644176 0
0.00391303708629 -0.104860246729 0
0.00376869883304 -0.108141660046 0
0.00347163876047 -0.110937060329 0
0.00304623205429 -0.113242311714 0
0.00251630134968 -0.115044029345 0
0.00190927915573 -0.116339024971 0
0.00122068312384 -0.117120957831 0
0.000449163754103 -0.117368073608 0
-0.000410124772809 -0.117130517988 0
-0.00113370396469 -0.116370895991 0
-0.00176532542756 -0.115095148864 0
-0.00231283283827 -0.113311152557 0
-0.00274900641305 -0.111023006749 0
-0.00304433561607 -0.108244983627 0
-0.00320269045303 -0.104973700289 0
-0.00322618789923 -0.101219081435 0
-0.00304688435702 -0.0970018147919 0
-0.00275196231388 -0.0923082572171 0
-0.0022802245467 -0.0871531772887 0
-0.00156146863812 -0.0815575350196 0
-0.000640378670546 -0.0755169928575 0
0.000486146338601 -0.0690380462053 0
0.00167126541662 -0.0620693652181 0
0.00309892638283 -0.0546700400403 0
0.00440055969782 -0.0467013743834 0
0.00548821828106 -0.0379811320742 0
0.00528387501728 -0.0323950358989 0
0.00484134290362 -0.0276900671585 0
0.00423977071087 -0.0236861377135 0
0.00362818306129 -0.0202811144026 0
0.00303941891883 -0.0173278561164 0
0.00238146199937 -0.0147592519056 0
0.00175390979815 -0.0125402939758 0
0.00113962769186 -0.0106135195644 0
0.000541812825364 -0.00892617410299 0
-2.54090489953e-05 -0.0074553314797 0
-0.000540548585571 -0.00617031418001 0
-0.00105368313466 -0.00506112005532 0
-0.00151849457983 -0.00410045902222 0
-0.00195908228518 -0.00328704018522 0
-0.00235310717343 -0.00258432836077 0
-0.00272882599882 -0.00198217389412 0
-0.00306458644452 -0.00146769591593 0
-0.00338716775296 -0.00104288210526 0
-0.00367002542186 -0.000685811227765 0
-0.00393172217254 -0.000402813520073 0
-0.00416000663143 -0.000165217027059 0
-0.00437642001939 1.78609658123e-05 0
-0.00457491858045 0.00015538441477 0
-0.00474628162733 0.000256730373184 0
-0.0049037653092 0.000318887447348 0
-0.00504243621675 0.000354399336248 0
-0.005169594217 0.000360651577396 0
-0.00527872399826 0.000345897164067 0
-0.00537886400904 0.000307533210825 0
-0.00546474103409 0.0002535790654 0
-0.00554187480132 0.00018187539478 0
-0.00560969260732 9.48864416353e-05 0
-0.00566473268887 -1.69808172994e-06 0
-0.00571286020349 -0.000109766619893 0
-0.00575117013464 -0.000223014500973 0
-0.00578195543402 -0.00034417982826 0
-0.00580413695429 -0.000466804170336 0
-0.00581923231263 -0.000591681411184 0
-0.00582803010536 -0.000715484522086 0
-0.0058317407516 -0.000836357939671 0
-0.00583212702031 -0.000953622041401 0
-0.00571735596358 -0.00106709836929 0
-0.00559495634969 -0.00106848298583 0
-0.00546533576282 -0.00107529766357 0
-0.00532555365025 -0.00109152086607 0
-0.00516716963522 -0.00112743847491 0
-0.00497066600001 -0.00118369888876 0
-0.00472850635857 -0.00125975323849 0
-0.00439032377632 -0.00135620055946 0
-0.0039264311346 -0.00144502537503 0
-0.00328634888676 -0.0014891988895 0
-0.00239950047102 -0.00140310502721 0
-0.0013219857171 -0.00104558198138 0
-0.00490141630365 9.5406974922e-05 0
0.00837363486956 -0.00120614005179 0
-0.00783338874168 -0.00137959327071 0
-0.0133517727622 -0.0127912426795 0
-0.0129915101593 -0.0399152859868 0
0.000710866449194 -0.0535853201853 0
0.0144942677443 -0.03809586313 0
0.013698551953 -0.0112623251757 0
-0.00517993520783 -0.000269675147825 0
0.00728238954895 -0.000577065128175 0
0.00913141244024 -0.00378201681232 0
0.014541628473 -0.030347851093 0
-0.00589053883142 0.000228085198146 0
-0.0086739993298 -0.00524340703462 0
0.00853290296345 -0.0691722046151 0
-0.0140434596102 -0.0323407582895 0
-0.00676699315478 -0.0708752848454 0
-0.00534978904535 0.000323371099318 0
0.00744484111232 -0.00105414239128 0
0.00865531948253 -0.00932696279277 0
-0.00586567057623 -0.000672690883721 0
0.0124794465388 -0.0548884359961 0
-0.00797813867122 -0.0126272146413 0
-0.000628408315504 -0.0887542016314 0
-0.0114607728169 -0.060022019309 0
0.00815137083138 -0.0187320359297 0
-0.00529803468357 -0.00263279186374 0
0.00903476445926 -0.0777856246657 0
-0.00799163443003 -0.0250024525395 0
0.00421473598429 -0.0918180303215 0
-0.00789507793766 -0.0800983594637 0
0.0102203797636 -0.0037242621393 0
0.00662309283441 -0.00248372957289 0
-0.00545220155908 -0.000644259567918 0
0.00689175730055 -0.000570450492019 0
0.00721647266677 -0.000750075380357 0
-0.0042676059816 -0.00037246257614 0
-0.00530427427203 0.000430854852566 0
0.00674600258099 -0.000642717193275 0
-0.00538683819772 8.77638287988e-05 0
0.0150452225256 -0.0203553522325 0
0.00830271964793 -0.0419433645094 0
-0.0144692331427 -0.0217804511475 0
-0.00656363253074 -0.0425338353048 0
-0.0104061759061 -0.00481428182527 0
0.0100064705491 -0.0390361387689 0
-0.00523208917546 -0.00647765785611 0
-0.00953244774135 -0.0446532072669 0
-0.00430642252859 -0.0920333522595 0
0.00623246934337 -0.00554538042984 0
-0.00585663202836 -0.000196092772531 0
-0.00514870333673 6.06336468683e-05 0
0.00636680497486 -0.0908588523351 0
-0.00547864825219 -0.000264385184536 0
0.00674148399771 -0.000557609146193 0
0.00626086450697 -0.00131742932261 0
-0.0053211521093 0.000392642883668 0
0.0125215117659 -0.0572517557892 0
-0.012916612317 -0.0199974154283 0
0.00358666133255 -0.0735470007052 0
-0.0109936759518 -0.0601281386387 0
-0.00760048512948 -0.00219030080393 0
-0.00291625258678 -0.000175343683794 0
0.00534985144737 -0.000720789632911 0
-0.00772066825841 -0.0180684741216 0
0.00972047635473 -0.0148346746723 0
-0.00643895745455 -0.00166222055538 0
-0.00933014343593 -0.00588945305689 0
0.0105688067812 -0.00745759250613 0
-0.000560041864929 -0.0224441223882 0
0.00499627325957 -0.0113253582687 0
-0.00459332536402 -0.00106397882402 0
0.00844493052927 -0.068941644364 0
-0.00402578494812 -0.0157689485176 0
0.000876506851327 -0.101484986659 0
-0.00773556311389 -0.0635469342497 0
0.00780555060844 -0.000723359542012 0
-0.00503100655965 3.87759854214e-05 0
0.0129562770327 -0.015274828691 0
0.0114434736991 -0.00730746382177 0
0.00533992533945 -0.0250828888524 0
-0.00676594430392 -0.0803708701188 0
-0.00511356279077 -0.000746469974214 0
0.0072324922828 -0.00068176793216 0
-0.00552865760547 0.000274176516104 0
-0.00421187944196 -0.000131821127886 0
-0.00398006050636 -0.000556362191515 0
0.00733580559799 -0.0530740528199 0
0.00882676089419 -0.00186148314843 0
-0.00300479676963 -0.00943081488448 0
-0.0051823158227 -0.0939737747874 0
-0.00386333894658 -0.00441504908882 0
-0.00597660725457 -0.0351409691711 0
-0.00196967808079 -0.103120576451 0
-0.00671455334101 -0.000458721496635 0
0.0152989760376 -0.0406104211005 0
-0.011096246059 -0.0102147158484 0
-0.0142143697631 -0.0440753309806 0
-0.00215017866584 -0.0698459055296 0
0.00740580657208 -0.00158134822518 0
0.00520227582976 -0.00389095115838 0
-0.00498990668793 0.00029735355118 0
0.00391779259852 -0.0189770648166 0
-0.00955382783839 -0.0090444246019 0
0.00430560073421 -0.101639803739 0
0.00635245306424 -0.0904124869268 0
0.00611755156676 -0.000913995882611 0
-0.00540841048434 0.000255639637828 0
0.00562425403371 -0.000849352969679 0
-0.00307371602622 -0.000524288371642 0
0.0034851061022 -0.0157617589207 0
0.00385487662671 -0.00816984761936 0
-0.00379129880943 -0.00214608016775 0
-0.00445056936758 -0.000426555295942 0
-0.00223525109115 -0.0220803796483 0
0.00546450569337 -0.00210360916952 0
0.0152739575794 -0.0198286084445 0
0.00733714054858 -0.00085111042744 0
-0.00466898049591 -0.000747781646873 0
0.00766869063789 -0.00336032401882 0
-0.00516971403943 0.000423796636708 0
-0.00563067728263 -0.0901251591188 0
0.00677935869997 -0.0822760245407 0
0.0027711569684 -0.103708904628 0
0.0107243276964 -0.0277566213424 0
0.00443563275896 -0.034950768217 0
-0.00525418950913 -0.0543840028714 0
0.00646688352833 -0.000618183183512 0
-0.00551720425038 -3.4660256864e-05 0
-0.0122122591293 -0.0256345967844 0
0.0115354695839 -0.029772805381 0
-0.00561249296518 -0.000820738576065 0
0.00676354480687 -0.000539094965949 0
0.0105437172696 -0.0536556690382 0
-0.0149356569227 -0.0241415147138 0
-0.00887674297786 -0.0545989481996 0
-0.00943798666736 -0.00383491305364 0
0.00877635738595 -0.00609402079617 0
-0.0059033010197 -4.48325937688e-05 0
0.0100933230093 -0.00329387891371 0
0.0137912082289 -0.0417925871547 0
-0.00823811065981 -0.00839733190304 0
-0.00353077207073 -0.081786904693 0
-0.012865688791 -0.046926816714 0
0.0120121556459 -0.0132237932988 0
-0.00528765023839 -0.0263112221232 0
-0.00867794613018 -0.0037202475258 0
0.00664497567184 -0.0599524477495 0
-0.00562074099708 -0.000526600156063 0
0.00669280832773 -0.000566516078032 0
0.00737745029876 -0.00063249202593 0
-0.00523662931074 5.03781034492e-05 0
-0.00548504110768 0.000410134486541 0
0.0118206460233 -0.00681085354218 0
0.00345797639225 -0.0380622439055 0
-0.00274417694664 -0.00656663985676 0
-0.00344898654582 -0.102170945663 0
-0.0133307206918 -0.0131994338658 0
0.00791940582809 -0.00198508204886 0
-0.00667402127887 -0.000879350270727 0
0.00748440423927 -0.0038978296225 0
0.00750928851823 -0.000647574376389 0
-0.00486308371144 -0.000311762322257 0
-0.00548137136805 0.000297690781984 0
0.0040690175978 -0.0056648298409 0
-0.0062327785127 -3.05232562063e-05 0
-0.00466906184207 3.52847908571e-05 0
0.0158123458671 -0.0274849962908 0
0.00853990718959 -0.0778637151028 0
-0.00652978179103 -0.0044369980184 0
-0.0113421946146 -0.0334949242922 0
-0.0067575069073 -0.0809049226795 0
-0.00805070511332 -0.0113018500453 0
-0.00405231362667 -0.000127070520489 0
0.00720205689785 -0.00080727752784 0
0.00651520449309 -0.0143264668425 0
0.00702753647728 -0.000565298964775 0
-0.00533385604411 -0.000434152349542 0
0.00912604608231 -0.0020657774502 0
-0.00980362773438 -0.0340042686647 0
0.0140024395302 -0.0246820771061 0
-0.00860234822247 -0.00246606890254 0
0.0138185448329 -0.012702626966 0
-0.011895297733 -0.00802260413233 0
-0.00189405516252 -0.0400635812364 0
-0.0147641172373 -0.0326115262865 0
-0.00957831028194 -0.0712495528196 0
0.00826818803865 -0.0131698281655 0
0.00680540260921 -0.000865698528705 0
-0.00535624142466 0.000269031024715 0
0.0135276074287 -0.0217667572719 0
0.00699269670578 -0.000562018328478 0
-0.00533803940909 -0.000121499995093 0
-0.00568454954976 -0.00156371468675 0
0.0109470804691 -0.0666689132926 0
-0.00813009509514 -0.0182471402696 0
0.00194554962606 -0.0919874324174 0
0.0068080479256 -0.00104966813217 0
-0.0039855496949 -0.000801286551357 0
-0.00545083817314 -0.0750432758919 0
-0.00530597320324 -0.00085306690619 0
0.00704601489741 -0.000608868632809 0
0.00577970462001 -0.0648882590666 0
-0.00169371771201 -0.0125352210617 0
-0.000413553278236 -0.107616694778 0
-0.00526980435328 0.000244009533384 0
-0.00542419992626 8.50507556404e-05 0
0.0056591868069 -0.0787135373523 0
0.00810720811081 -0.00106577254327 0
0.00532294668908 -0.0978649541153 0
0.011851390746 -0.00628112279869 0
-0.00518686301653 -0.0564627127395 0
-0.0109823943179 -0.00663409435016 0
0.00994789189453 -0.058285314356 0
-0.00516311964144 -0.0119989768645 0
-0.000809907822421 -0.0974690572272 0
0.00237092279152 -0.0203957613481 0
-0.0151156328229 -0.0326611862606 0
0.00544552585142 -0.00160571988704 0
0.00571568724972 -0.00138102279616 0
-0.00530573765142 0.000374895298072 0
-0.00329989474115 -0.00310531200648 0
-0.00172991046758 -0.0271468267812 0
0.0047348010754 -0.043876915881 0
-0.00399117206164 -0.0452695264027 0
0.00488843257258 -0.00279679583436 0
0.0065875220128 -0.000575641143815 0
-0.00558740134777 -0.00026810939892 0
-0.00503361094576 0.000386613265062 0
0.0114024427824 -0.0101673567983 0
0.00621291264515 -0.000753710509755 0
-0.00548501878709 0.00013097722333 0
-0.0068842401818 -0.00101341767631 0
0.0140706797977 -0.050587268426 0
-0.0113712942453 -0.0141849925319 0
0.000252926132366 -0.0740514195547 0
-0.0127614149342 -0.0541777965355 0
0.0044650838147 -0.000935245843717 0
-0.00209934021806 -0.000186879595192 0
0.00688967344842 -0.00794608998269 0
-0.0087532932214 -0.069800228017 0
-0.00529701308917 -0.000357732294648 0
0.00620033823304 -0.086022068358 0
-0.012036637476 -0.0254087979092 0
-0.00905036775658 -0.0708816405416 0
-0.00708836164859 -0.00299823134199 0
-0.00158253844541 -0.000231864096746 0
0.00312598941658 -0.000502429720481 0
-0.00258317081673 -0.000298348395091 0
0.00695211174464 -0.00172037489772 0
-0.0053715131122 0.000429853592732 0
0.0154573603367 -0.0320258075116 0
0.0106910307671 -0.0678888714876 0
-0.0107539167517 -0.0534754645672 0
-0.00684242869478 -0.000582686002601 0
0.0110685692626 -0.0470373595876 0
-0.00589175913378 -0.00900310637578 0
-0.0026517615265 -0.0926164244953 0
0.00738012119133 -0.000661203495972 0
-0.00499374268305 -0.000490787526731 0
0.00274317215064 -0.011455644686 0
0.00830115436407 -0.0327228052863 0
0.0076697863351 -0.000714179761482 0
-0.00465722507342 -0.000119172658638 0
-0.00396206434152 -0.00112753626803 0
0.00618700630299 -0.071746939924 0
-0.00157634657374 -0.0152945745549 0
-0.00496308059112 -0.0685353237409 0
0.000673338673912 -0.10765531699 0
0.00464666413854 -0.0492854833417 0
0.0111602602445 -0.0161371450496 0
0.00730042729176 -0.000859294299463 0
-0.00484633489336 -0.000929608282068 0
0.0114599791481 -0.038639707488 0
0.00615173860422 -0.00453548369255 0
0.0106340265572 -0.00485887534542 0
-0.00170961829496 -0.0109149880919 0
0.00738210381088 -0.0285360383061 0
-0.0051708982572 -0.00249535885887 0
-0.0124988853883 -0.0165320454865 0
-0.00409811362559 -5.83957416586e-05 0
-0.0144172145673 -0.0171494632869 0
-0.005831103773 0.000238020639925 0
0.012915267013 -0.0327060101151 0
-0.00364097946589 -0.000786860953476 0
-0.00170852987118 -0.00060938785073 0
0.00327873896274 -0.000953207093867 0
0.00671713203289 -0.000559120285318 0
-0.00565013320747 -0.00068481004434 0
0.00779500629229 -0.00275671307531 0
0.00120883616233 -0.0138252306406 0
-0.00703885409908 -0.00498890706634 0
-0.00545089530118 -0.000899815210667 0
0.0069002228254 -0.000549482600312 0
-0.00477059127572 -0.00154226616246 0
0.00756714102726 -0.00126350644168 0
-0.00500484795139 -0.00033200407886 0
-0.00468461872142 -0.0125702182363 0
0.00747893764838 -0.00859217569929 0
-0.00841409630191 -0.00215857406727 0
-0.00553960277582 0.000389335611435 0
0.0135710284609 -0.0450593816208 0
-0.0115507781995 -0.0490741839565 0
0.00103565020159 -0.0256907196527 0
-0.00478085606458 -0.0850821340679 0
0.00790545092466 -0.0833771320117 0
0.00752264049101 -0.000604483910999 0
-0.00509123736684 -0.000101697756282 0
0.00621214780904 -0.00327131319871 0
0.00363842994258 -0.0599330746556 0
-0.00446046991488 -0.0974612816138 0
-0.0140796044618 -0.0168616387692 0
-0.0138575852934 -0.0255201362979 0
-0.0092396032154 -0.0659151358297 0
-0.00798217024092 -0.00327398366001 0
0.0108695452385 -0.062388414879 0
0.00532370919538 -0.0897238824236 0
0.00315635036289 -0.108069264285 0
0.0082642865388 -0.00247644876117 0
0.00683328115212 -0.000556893697981 0
-0.00546603000536 -0.000452463786896 0
-0.00244153287759 -0.00520834408782 0
-0.00173868730539 -0.0082636456833 0
-0.00398769792022 -0.101414277287 0
-0.00236208614454 -0.107051403291 0
-0.00374624143877 -0.000343666025624 0
0.00666286247713 -0.000751092516818 0
0.0130168163067 -0.0116305113573 0
0.00703156092739 -0.000593032864562 0
-0.00532891523257 -0.000642573805668 0
0.0088277332088 -0.00239443840073 0
0.00257112418566 -0.0563354917885 0
0.000909765895317 -0.0350808417812 0
-0.0121536870275 -0.0095268565486 0
-0.00229844521313 -0.0580499780612 0
0.00401321328576 -0.00457140931984 0
0.00387249313633 -0.08021669791 0
-0.00472946564676 0.000184426597467 0
-0.00567631802387 -0.000914014455519 0
0.00673016367992 -0.000509662993772 0
-0.0121552081471 -0.0407294278935 0
-0.00515505858681 -0.0830149729176 0
-0.00709048873269 -0.00623097118802 0
-0.00526828792408 0.000202961767955 0
0.00932764441721 -0.00214790620056 0
0.00751325979079 -0.000794710900378 0
0.00674577270728 -0.000568344638351 0
-0.00543362384601 -0.000108707825647 0
0.00627676965165 -0.00326225205014 0
0.00304373762166 -0.00683294797098 0
-0.00435183693775 -0.000195550910847 0
0.0142606790796 -0.0152515794687 0
0.0151661054892 -0.0359901382737 0
-0.00978464660289 -0.00740333752389 0
-0.0145444843244 -0.0393694925791 0
-0.00463872406954 -0.0708073798663 0
-0.00623935587097 -3.55606834976e-05 0
-0.0112393264921 -0.0629471957878 0
-0.00745554816863 -0.00110528467847 0
0.0126463130489 -0.0596119565796 0
-0.0066765447377 -0.00155459706188 0
-0.0109033336154 -0.0179842128653 0
0.00706338629112 -0.000703933330174 0
0.0146721925441 -0.0436397965763 0
-0.00532781293607 0.000156451853779 0
-0.0127301419452 -0.0132170581631 0
-0.0133758089385 -0.0464746096115 0
0.000337152116302 -0.0643191844187 0
0.00857167313347 -0.0234165069236 0
0.0110757566757 -0.0208092794128 0
-0.00509214757627 -0.00362393767464 0
-0.00822705538386 -0.0305681221968 0
-0.00662875958145 -0.085490382906 0
0.00511044519799 -0.0979215208179 0
0.00434719685531 -0.103928890289 0
0.0142196962243 -0.0471637447648 0
-0.00966556402709 -0.0111326848177 0
-0.001627039199 -0.0800289335198 0
-0.013034492802 -0.0521094595685 0
0.00565207099256 -0.00117908915023 0
-0.00537747162236 0.000313553615831 0
-0.0052220269478 0.000377035206486 0
0.0146048367546 -0.0144169911257 0
0.00893994081698 -0.0737288910201 0
0.00224286164651 -0.0985543735323 0
0.00991538072988 -0.00807419215643 0
0.0052144579513 -0.00173426954087 0
-0.00152170052798 -0.0103621502116 0
-0.00135927663794 -0.108129358771 0
0.00815163938355 -0.000936260678429 0
-0.00503492801524 0.000126054673105 0
-0.0100441677892 -0.043985727245 0
-0.00516328852684 -0.000909044373949 0
0.00717036666672 -0.000676624643852 0
-0.00567293052366 0.000343289140566 0
-0.00922564108423 -0.00303613158266 0