# vtk DataFile Version 2.0
Generated with Solid Solver
ASCII
DATASET UNSTRUCTURED_GRID
POINTS 1163 float 
0.0 3.5 0.0
2.2 3.5 0.0
2.2 4.0 0.0
0.0 4.0 0.0
0.0687499999999 3.5 0.0
0.1375 3.5 0.0
0.20625 3.5 0.0
0.275 3.5 0.0
0.343749999999 3.5 0.0
0.412499999999 3.5 0.0
0.481249999999 3.5 0.0
0.549999999999 3.5 0.0
0.618749999998 3.5 0.0
0.687499999998 3.5 0.0
0.756249999998 3.5 0.0
0.824999999998 3.5 0.0
0.893749999998 3.5 0.0
0.962499999997 3.5 0.0
1.03125 3.5 0.0
1.1 3.5 0.0
1.16875 3.5 0.0
1.2375 3.5 0.0
1.30625 3.5 0.0
1.375 3.5 0.0
1.44375 3.5 0.0
1.5125 3.5 0.0
1.58125 3.5 0.0
1.65 3.5 0.0
1.71875 3.5 0.0
1.7875 3.5 0.0
1.85625 3.5 0.0
1.925 3.5 0.0
1.99375 3.5 0.0
2.0625 3.5 0.0
2.13125 3.5 0.0
2.2 3.56430812579 0.0
2.2 3.6227083524 0.0
2.2 3.67574343203 0.0
2.2 3.72390623714 0.0
2.2 3.76764438299 0.0
2.2 3.80736436348 0.0
2.2 3.84343531161 0.0
2.2 3.87619247056 0.0
2.2 3.90594026646 0.0
2.2 3.93295517223 0.0
2.2 3.9574882542 0.0
2.2 3.97976750927 0.0
2.18000003888 4.0 0.0
2.15999995974 4.0 0.0
2.13999995594 4.0 0.0
2.12000003893 4.0 0.0
2.0999999813 4.0 0.0
2.07999993507 4.0 0.0
2.06000001965 4.0 0.0
2.04000002354 4.0 0.0
2.01999993997 4.0 0.0
1.99999999426 4.0 0.0
1.98000004623 4.0 0.0
1.95999996625 4.0 0.0
1.93999996787 4.0 0.0
1.92000005069 4.0 0.0
1.90000001292 4.0 0.0
1.87999994967 4.0 0.0
1.86000003245 4.0 0.0
1.84000003166 4.0 0.0
1.81999995194 4.0 0.0
1.80000002065 4.0 0.0
1.78000005962 4.0 0.0
1.75999997703 4.0 0.0
1.73999998149 4.0 0.0
1.72000006236 4.0 0.0
1.70000000651 4.0 0.0
1.67999995967 4.0 0.0
1.66000004242 4.0 0.0
1.64000004304 4.0 0.0
1.61999996152 4.0 0.0
1.6000000096 4.0 0.0
1.58000006667 4.0 0.0
1.55999998704 4.0 0.0
1.53999998381 4.0 0.0
1.52000006764 4.0 0.0
1.5000000299 4.0 0.0
1.47999996242 4.0 0.0
1.46000004337 4.0 0.0
1.4400000454 4.0 0.0
1.41999996386 4.0 0.0
1.40000002834 4.0 0.0
1.38000006734 4.0 0.0
1.35999998576 4.0 0.0
1.33999998537 4.0 0.0
1.32000006658 4.0 0.0
1.30000001585 4.0 0.0
1.27999996279 4.0 0.0
1.26000004759 4.0 0.0
1.24000004493 4.0 0.0
1.2199999616 4.0 0.0
1.20000000906 4.0 0.0
1.18000006792 4.0 0.0
1.15999998616 4.0 0.0
1.13999999119 4.0 0.0
1.12000007157 4.0 0.0
1.1 4.0 0.0
1.07999992843 4.0 0.0
1.06000000881 4.0 0.0
1.04000001384 4.0 0.0
1.01999993209 4.0 0.0
0.999999990948 4.0 0.0
0.98000003841 4.0 0.0
0.959999955072 4.0 0.0
0.939999952416 4.0 0.0
0.920000037214 4.0 0.0
0.899999984154 4.0 0.0
0.879999933427 4.0 0.0
0.860000014636 4.0 0.0
0.840000014246 4.0 0.0
0.819999932662 4.0 0.0
0.79999997166 4.0 0.0
0.780000036145 4.0 0.0
0.759999954604 4.0 0.0
0.73999995663 4.0 0.0
0.72000003758 4.0 0.0
0.699999970103 4.0 0.0
0.679999932361 4.0 0.0
0.660000016189 4.0 0.0
0.640000012962 4.0 0.0
0.61999993333 4.0 0.0
0.599999990406 4.0 0.0
0.58000003848 4.0 0.0
0.559999956964 4.0 0.0
0.539999957581 4.0 0.0
0.520000040329 4.0 0.0
0.499999993489 4.0 0.0
0.479999937647 4.0 0.0
0.460000018512 4.0 0.0
0.440000022972 4.0 0.0
0.419999940378 4.0 0.0
0.399999979352 4.0 0.0
0.380000048063 4.0 0.0
0.359999968347 4.0 0.0
0.339999967553 4.0 0.0
0.320000050328 4.0 0.0
0.299999987077 4.0 0.0
0.279999949312 4.0 0.0
0.260000032129 4.0 0.0
0.240000033752 4.0 0.0
0.219999953776 4.0 0.0
0.200000005737 4.0 0.0
0.180000060031 4.0 0.0
0.159999976465 4.0 0.0
0.139999980354 4.0 0.0
0.120000064926 4.0 0.0
0.100000018697 4.0 0.0
0.0799999610675 4.0 0.0
0.0600000440571 4.0 0.0
0.0400000402596 4.0 0.0
0.0199999611169 4.0 0.0
0.0 3.97976750927 0.0
0.0 3.9574882542 0.0
0.0 3.93295517223 0.0
0.0 3.90594026646 0.0
0.0 3.87619247056 0.0
0.0 3.84343531161 0.0
0.0 3.80736436348 0.0
0.0 3.76764438299 0.0
0.0 3.72390623714 0.0
0.0 3.67574343203 0.0
0.0 3.6227083524 0.0
0.0 3.56430812579 0.0
0.249757963562 3.75212589829 0.0
1.94999996706 3.74954522137 0.0
0.488710285893 3.75947702441 0.0
0.726520490699 3.7655965719 0.0
0.967283134849 3.7597072979 0.0
1.20619032017 3.75831098673 0.0
1.45842774915 3.76733088374 0.0
1.69012076678 3.7622332834 0.0
0.130754044069 3.86878249167 0.0
2.06924595593 3.86878249167 0.0
1.8299999918 3.84622455633 0.0
1.56816462369 3.85034872999 0.0
0.369913859351 3.84868157925 0.0
0.608733620231 3.84706187144 0.0
1.33069778866 3.84790908234 0.0
0.84323446252 3.84762979148 0.0
1.08873170817 3.84705870913 0.0
0.250539365135 3.87785524304 0.0
1.94967747948 3.87849609822 0.0
1.73218750075 3.8916046151 0.0
0.468661874066 3.89189322974 0.0
1.47574192429 3.89639134117 0.0
0.704258110321 3.8963912684 0.0
1.18331258449 3.8976320365 0.0
0.949999953744 3.89208018478 0.0
1.64795374468 3.91749779939 0.0
0.548928463645 3.91905583847 0.0
1.38619509199 3.91928594438 0.0
0.788926872841 3.91906062101 0.0
1.27071160784 3.91777932845 0.0
1.02999997296 3.91685174433 0.0
1.81733541416 3.69950870754 0.0
1.86999999106 3.91823503401 0.0
0.071252620538 3.93011431841 0.0
2.12874737946 3.93011431841 0.0
2.07400690796 3.74293885365 0.0
0.125993092043 3.74293885365 0.0
0.32995676804 3.92118147353 0.0
2.00999996712 3.92542383197 0.0
0.190000032884 3.92542383197 0.0
1.56698738743 3.72218882919 0.0
1.33000000474 3.72531695685 0.0
0.848014510843 3.71986098938 0.0
1.09024665585 3.72285801424 0.0
0.610276609989 3.72290563624 0.0
1.54999998543 3.92414142844 0.0
0.629999973146 3.92414137652 0.0
0.869999974031 3.92414141814 0.0
1.11000003579 3.92414141267 0.0
1.79030638642 3.92649353654 0.0
0.370434802927 3.72513294336 0.0
0.410903135411 3.92892991244 0.0
1.33000002597 3.93737911571 0.0
0.129927648482 3.94112154503 0.0
2.07007235152 3.94112154503 0.0
1.93000000928 3.93875927586 0.0
0.26999999072 3.93875927586 0.0
1.40966706061 3.83880068991 0.0
0.770332962441 3.83880062149 0.0
1.24904900022 3.84293377683 0.0
1.01033287484 3.83880060723 0.0
0.530342681434 3.83880307444 0.0
0.189895273961 3.63486992823 0.0
2.00989835291 3.62845703161 0.0
0.998888153878 3.61665036233 0.0
1.47894673873 3.61675180774 0.0
0.51733910646 3.62937665489 0.0
0.705112628302 3.618743723 0.0
1.66672137035 3.63168728155 0.0
1.18508242495 3.61871739348 0.0
1.71000003443 3.94408608591 0.0
0.489999965568 3.94463856597 0.0
1.44983363802 3.94422347836 0.0
0.729999997105 3.94465012565 0.0
1.21016639734 3.94422345842 0.0
0.928621800545 3.94440037102 0.0
2.00626203014 3.81543543551 0.0
0.193627962274 3.81528928332 0.0
1.66628164144 3.83559795895 0.0
1.75661718781 3.81065958113 0.0
1.61143779865 3.94859227761 0.0
0.991673865748 3.95161238438 0.0
0.0604617941233 3.86281264864 0.0
2.13953820588 3.86281264865 0.0
0.300965570716 3.8114148258 0.0
0.2970894797 3.66361086085 0.0
0.398842167194 3.60449226805 0.0
1.51000004877 3.95218393067 0.0
1.90135619383 3.81213273629 0.0
0.669405272842 3.95495208979 0.0
1.07142780558 3.94866325309 0.0
0.592085094025 3.94901139323 0.0
0.831051660929 3.94633985879 0.0
1.14940528892 3.9549521224 0.0
0.44409344258 3.82719938178 0.0
1.49646539728 3.82376850413 0.0
0.683434082651 3.82631713605 0.0
0.92337834777 3.8234861632 0.0
1.16343437877 3.82631615351 0.0
1.90749084149 3.65350700271 0.0
1.8278758005 3.95083911942 0.0
0.37243073327 3.95235211027 0.0
1.29345662549 3.60569899261 0.0
0.813407949226 3.60572380122 0.0
1.29317153636 3.96216077293 0.0
1.367704599 3.96055764734 0.0
1.97071235041 3.96038324024 0.0
0.22928764959 3.96038324024 0.0
2.10610581798 3.66047411138 0.0
0.0938941820177 3.66047411138 0.0
1.67000000105 3.95862953468 0.0
1.74869816704 3.96079301687 0.0
0.531976761939 3.96138655466 0.0
0.451361042387 3.96112774725 0.0
0.771976832233 3.96138887156 0.0
1.88843481911 3.95881554986 0.0
1.61277513709 3.78538823015 0.0
2.13311214501 3.79435403671 0.0
0.0668878549946 3.79435403671 0.0
1.76678797151 3.60286552601 0.0
0.311702446283 3.9611157379 0.0
1.02877762737 3.96159282031 0.0
1.40830122607 3.96143175203 0.0
1.25214210333 3.957355862 0.0
1.59476493393 3.9048774062 0.0
1.56950979124 3.96148017208 0.0
0.890017020275 3.96125792969 0.0
2.03089110475 3.96040268709 0.0
0.169108895255 3.96040268709 0.0
0.939722125942 3.68539157065 0.0
1.41686981874 3.69192854313 0.0
0.0426348006718 3.96101756902 0.0
2.15736519933 3.96101756902 0.0
1.36077308019 3.79177204211 0.0
0.817982383499 3.78962669257 0.0
1.05834720932 3.78780184893 0.0
0.578349529346 3.78781530011 0.0
1.77992711518 3.87652731382 0.0
0.417982153133 3.87594990465 0.0
1.84363633012 3.77741329286 0.0
1.52244994479 3.87704541475 0.0
0.657426528912 3.87734838249 0.0
1.13742651778 3.87734834025 0.0
0.898116026439 3.8800466833 0.0
1.56984259435 3.64465823131 0.0
1.08983016076 3.6446495206 0.0
0.609942357805 3.64483976081 0.0
1.29451769374 3.79627773068 0.0
0.0893439668432 3.96574839433 0.0
2.11065603316 3.96574839433 0.0
2.01422398896 3.86980625824 0.0
0.185776011038 3.86980625824 0.0
0.305957237756 3.87340573745 0.0
1.72977480551 3.68665973332 0.0
1.25418096296 3.69351129461 0.0
0.629999973146 3.96272981435 0.0
1.11000003579 3.96272983221 0.0
0.772975283819 3.69297597031 0.0
1.89089074715 3.86951346173 0.0
0.445448577516 3.69456159386 0.0
1.82621986864 3.89678318705 0.0
2.07135424223 3.81165410377 0.0
0.128645757768 3.81165410377 0.0
0.373320289473 3.89968791662 0.0
1.79000004014 3.96541718891 0.0
0.383302070088 3.78976392323 0.0
0.409457623385 3.96502881851 0.0
1.55531527123 3.78787141386 0.0
1.34861332978 3.89383287415 0.0
0.593245985735 3.89483466551 0.0
0.833245353375 3.89479604398 0.0
1.0732444554 3.8948349405 0.0
0.911896623122 3.59194725763 0.0
0.187580554011 3.70699710313 0.0
2.01241944599 3.70699710313 0.0
1.39201907571 3.59233063354 0.0
2.09635520798 3.90516200201 0.0
0.103644792024 3.90516200201 0.0
1.89086147526 3.72621461413 0.0
1.02102684616 3.70044819701 0.0
1.49813234221 3.70194667869 0.0
0.53965669049 3.70593418829 0.0
1.63719578665 3.69772473547 0.0
0.685447658936 3.70127585046 0.0
1.16541741817 3.70128744764 0.0
0.901649266036 3.76287226775 0.0
0.992351690321 3.90662993531 0.0
1.69131894868 3.90657323657 0.0
1.9699561555 3.91599371502 0.0
0.230043844497 3.91599371502 0.0
1.61980840676 3.85005402918 0.0
2.04685187594 3.90639759008 0.0
0.153148124058 3.90639759008 0.0
0.512139828486 3.90538520837 0.0
1.43057458921 3.90702644399 0.0
0.749149996349 3.90689574876 0.0
[...]
POINT_DATA 1163
VECTORS Displacement float
0.0 0.0 0
0.0 0.0 0
0.0120418109493 -0.00324835399463 0
-0.00722316603596 -0.00194496213571 0
0.0 0.0 0
0.0 0.0 0
0.0 0.0 0
0.0 0.0 0
0.0 0.0 0
0.0 0.0 0
0.0 0.0 0
0.0 0.0 0
0.0 0.0 0
0.0 0.0 0
0.0 0.0 0
0.0 0.0 0
0.0 0.0 0
0.0 0.0 0
0.0 0.0 0
0.0 0.0 0
0.0 0.0 0
0.0 0.0 0
0.0 0.0 0
0.0 0.0 0
0.0 0.0 0
0.0 0.0 0
0.0 0.0 0
0.0 0.0 0
0.0 0.0 0
0.0 0.0 0
0.0 0.0 0
0.0 0.0 0
0.0 0.0 0
0.0 0.0 0
0.0 0.0 0
0.00796319145851 -0.00602963798834 0
0.0135535231262 -0.00782896789075 0
0.0173958662724 -0.00796574614245 0
0.0193068758962 -0.00726950930667 0
0.0199438085389 -0.00634801370172 0
0.019695068363 -0.00537761468252 0
0.0187685351252 -0.00459231637561 0
0.0176447555668 -0.00398367476946 0
0.0163447207419 -0.00356931886972 0
0.0150782330798 -0.00336504405413 0
0.0139253636451 -0.00327192289499 0
0.0129186707682 -0.00324646885775 0
0.0120438041464 -0.00410588395497 0
0.0120316706102 -0.00492254799816 0
0.0119759460032 -0.00570774712172 0
0.011854608778 -0.00647688428083 0
0.0116592928432 -0.00726292940529 0
0.0113884854618 -0.00810654980262 0
0.01101960552 -0.00901737644011 0
0.0105874050615 -0.010064953484 0
0.0100557115194 -0.0112515103642 0
0.00948710133023 -0.0126337207346 0
0.00881469355087 -0.0142145057053 0
0.00808330416157 -0.0160927351316 0
0.00735259290796 -0.0182685996082 0
0.00654146045318 -0.0208120946427 0
0.0057941374195 -0.0237543641574 0
0.00499097902367 -0.0271799052618 0
0.00419464741224 -0.0312107910964 0
0.00357569442305 -0.0359483942931 0
0.00311028353802 -0.0416645028797 0
0.00305898474846 -0.0485977984102 0
0.00449164768669 -0.0580724687285 0
0.00602048635657 -0.0674083851635 0
0.00763159948807 -0.0763206684022 0
0.00897999060226 -0.0845804569383 0
0.0102368700709 -0.0923803502496 0
0.0111512584924 -0.0997471919039 0
0.0118761955035 -0.106663571575 0
0.0123160099836 -0.113121277469 0
0.01252319259 -0.119127939516 0
0.0124400783818 -0.124627394783 0
0.0121175388694 -0.129730741681 0
0.0116556644121 -0.134316877896 0
0.010959742248 -0.138407645873 0
0.0100746476161 -0.141989534662 0
0.00901170805807 -0.145043809309 0
0.0078064252869 -0.147568909056 0
0.00646026246883 -0.149554744307 0
0.00499086159095 -0.150990717143 0
0.0034245031247 -0.151867612923 0
0.00167114904698 -0.152180087909 0
9.5816808722e-05 -0.151887887952 0
-0.00142487974121 -0.151130555737 0
-0.00283407915299 -0.149789968827 0
-0.00414737263302 -0.147892321898 0
-0.00532444622796 -0.145452086811 0
-0.00633519749722 -0.142484598049 0
-0.00719051666943 -0.138992372662 0
-0.00786691797192 -0.134990376849 0
-0.00833529940078 -0.130492676705 0
-0.0085584579892 -0.125513212107 0
-0.00857877992319 -0.120051796166 0
-0.00833463147763 -0.114122350296 0
-0.00781397423917 -0.107742571276 0
-0.00702812171315 -0.100969188229 0
-0.00603528066522 -0.093735655087 0
-0.00469043704891 -0.0860797414606 0
-0.00319111499909 -0.0779758674637 0
-0.00159040871526 -0.0692819031179 0
0.000332956129611 -0.0602583378193 0
0.00198948131263 -0.0504962783423 0
0.00277628756015 -0.0425792203067 0
0.00281683792902 -0.0362564589882 0
0.00248913191804 -0.0309867914464 0
0.00194178337646 -0.0264798617532 0
0.0014089366672 -0.0226481895636 0
0.000776614107683 -0.0193224232342 0
0.000196426071524 -0.0164064991352 0
-0.000431686173401 -0.0138648400667 0
-0.00103727567043 -0.0116705375248 0
-0.00161457930832 -0.00976031567428 0
-0.00216781832287 -0.00808425543851 0
-0.00269467722364 -0.00663892709087 0
-0.00315706806635 -0.00537971324101 0
-0.0036112062206 -0.0042957616381 0
-0.00402026043816 -0.00335975634899 0
-0.00439460120848 -0.00256581708544 0
-0.00473721680102 -0.00188535075943 0
-0.00504489045943 -0.00130886546248 0
-0.00531109790005 -0.000816370396798 0
-0.00556195832656 -0.000409578522778 0
-0.00577666667997 -7.16924206897e-05 0
-0.00597249016601 0.00019502257929 0
-0.00613579538449 0.000411870026861 0
-0.00628386894043 0.000580840175422 0
-0.00640758766079 0.000711120752818 0
-0.00652094495801 0.00080003295306 0
-0.00661312096836 0.000859693793691 0
-0.0066935126206 0.000885631040505 0
-0.0067579135483 0.000892461988081 0
-0.00681708003482 0.000875071540555 0
-0.0068692125539 0.000837877297348 0
-0.00691085205147 0.00078435365902 0
-0.00694792800837 0.00071323582809 0
-0.00697992365814 0.000629515282763 0
-0.00700910570238 0.000532559622871 0
-0.00703374844583 0.000424580665301 0
-0.00705848659694 0.000305223275998 0
-0.00708021798231 0.000175363365846 0
-0.00710222861489 3.56112454101e-05 0
-0.00712307325813 -0.000114742578465 0
-0.0071412356807 -0.000273119752389 0
-0.00715956071072 -0.000439518075761 0
-0.00717536045456 -0.0006132878427 0
-0.0071902962868 -0.000794037579664 0
-0.00720212025576 -0.000980109951359 0
-0.00721170285489 -0.00117066006427 0
-0.0072184072345 -0.00136422675466 0
-0.00722192691053 -0.0015586565408 0
-0.0072231420524 -0.00175270629706 0
-0.00702934013462 -0.00194499654402 0
-0.00681755464044 -0.00194703681894 0
-0.00658494186978 -0.00195259105195 0
-0.00632491926666 -0.00196373077544 0
-0.00602891650166 -0.00198351824229 0
-0.00567874474564 -0.00200825154339 0
-0.00526922278472 -0.00203185145106 0
-0.00476077067634 -0.00204933430765 0
-0.00413904904936 -0.00203075424198 0
-0.00336604643856 -0.00193351198392 0
-0.00240386797205 -0.00169169690761 0
-0.00130868586945 -0.00117874703953 0
-0.00498082944783 4.18092137049e-05 0
0.0222889667318 -0.0134220190822 0
-0.00739163477814 0.000176881644707 0
-0.0127969200255 -0.00464828987238 0
-0.0200440592703 -0.0264818852102 0
-0.0137367724324 -0.0595124499924 0
0.00679347682341 -0.0714799584395 0
0.0223943766356 -0.047537940571 0
-0.00599156434384 -0.000686295882331 0
0.0184435505792 -0.00824382195152 0
0.0239060109568 -0.033798047366 0
0.0161039381497 -0.0873381974003 0
-0.00656776527439 0.000678285062628 0
-0.00895008017379 -0.000682244504699 0
-0.00429152313778 -0.0965879205509 0
-0.0145905210217 -0.0137445633906 0
-0.0191552446626 -0.0609130114508 0
-0.00625745517778 0.000216352809895 0
0.0193667653456 -0.0164362923121 0
0.0224254314422 -0.0625971238671 0
-0.00712718997123 0.000805079427937 0
0.00845333447203 -0.1118884099 0
-0.00886806839903 -0.00339915942158 0
-0.0139794526648 -0.0931114642333 0
-0.015470354265 -0.0321472530208 0
0.0187131421803 -0.0903484017137 0
-0.00719912304351 0.000384137287587 0
0.00072797563079 -0.122691800616 0
-0.0085697467524 -0.00857476515065 0
-0.00832744232768 -0.113758871958 0
-0.015553306613 -0.0560917499969 0
0.0220193329783 -0.0221921178442 0
0.0177788681417 -0.0285363699792 0
-0.00656095134783 -0.00125133651659 0
0.015252580878 -0.00610295826643 0
0.0203250959746 -0.00715387944834 0
-0.00445276522428 -0.000686025176269 0
-0.00667198908057 0.000667288290858 0
0.0153896368999 -0.0115282238685 0
-0.0065460015578 -0.000186532434024 0
0.0144517957018 -0.0520630834058 0
-0.00424612089541 -0.0586860594593 0
-0.0165022239439 -0.0113704927964 0
-0.0182805542813 -0.0380871408051 0
-0.00944407476893 -0.00128881087869 0
0.013564606398 -0.112268189225 0
-0.00733402897311 -0.000919591609475 0
-0.00948058652105 -0.0175796346543 0
-0.0148213430241 -0.0817536387141 0
0.0191829551051 -0.0494180609922 0
-0.00553211540691 0.000234566208264 0
-0.00682440014952 0.000896881703402 0
-0.00380781632161 -0.126590862014 0
-0.0066632507191 -0.000695621597986 0
0.0144861100021 -0.00832625526159 0
0.0144521553805 -0.0190598879153 0
-0.00669104503667 0.000371586249247 0
0.0027153887186 -0.0954038319118 0
-0.0126424200951 -0.00724009274539 0
-0.0109455204979 -0.0878412728143 0
-0.0199400096858 -0.0419959090871 0
-0.00796922825248 0.00029399791617 0
-0.00273789843926 -0.000247742814162 0
0.0148305238142 -0.00572705522276 0
-0.0133793203174 -0.0141765502767 0
0.00516546234052 -0.0281928776565 0
-0.00549990388605 -0.000495153989123 0
-0.00873243936923 -0.00273306653394 0
0.0143237093488 -0.024235333473 0
-0.0100305098837 -0.0244862291442 0
0.0178223633153 -0.0785210216386 0
-0.00682962002772 0.00080595667863 0
0.00596694151086 -0.130098774565 0
-0.00656895133718 -0.00462071282194 0
-0.010906075738 -0.111689655548 0
-0.00843039824424 -0.0282231765992 0
0.0210452823931 -0.01105853379 0
-0.00552707561878 -0.000200401496538 0
0.0220895787432 -0.0669668117801 0
0.0248335851124 -0.0446101043454 0
0.0156657953855 -0.107358444979 0
-0.00977764933894 -0.0460916308659 0
-0.00589842815173 -0.00135750349019 0
0.018385380272 -0.0059842180816 0
-0.00592177712896 0.000361999051734 0
-0.00386385628247 -1.18148948252e-05 0
-0.00336748841463 -0.000170673577141 0
0.0103519127876 -0.127155460462 0
0.023336531778 -0.0206403245535 0
-0.00625806743853 -0.00203791023406 0
-0.0124515842913 -0.0744464754863 0
-0.00667671719745 -0.00016080686251 0
-0.00656830982598 -0.0126180008538 0
-0.0119026431441 -0.0998759316004 0
-0.00708148543058 0.000647496830434 0
0.0104784691234 -0.0868518983152 0
-0.01078321957 -0.00279331740548 0
-0.0184210725061 -0.0241223122864 0
-0.0165651161989 -0.0710105222045 0
0.0181802384002 -0.0112802429862 0
0.014531032362 -0.0390261271003 0
-0.00679467405939 0.000835045516059 0
-0.004696939432 -0.0248412025973 0
-0.010313736184 -0.00514486500326 0
-0.00615057148907 -0.131408367062 0
-0.000747616411438 -0.136908545326 0
0.0122970877904 -0.0147264033342 0
-0.00681762963638 0.000109657049089 0
0.0164801620173 -0.00528995321003 0
-0.00304459236261 -0.000772404779404 0
0.0161654043326 -0.0941557385312 0
0.0152683990852 -0.0676354195797 0
-0.00660925669745 0.000552226072446 0
-0.0067585208783 0.000907454323893 0
-0.00529387654617 -0.00725890926447 0
0.0120610058684 -0.0253592970333 0
0.0189663773978 -0.0635808374673 0
0.0202257789203 -0.00637664480052 0
-0.00511530142246 -0.00126796835696 0
0.0138699338352 -0.0138130826519 0
-0.00681619417286 0.000600899862657 0
-0.0095412134191 -0.060678128406 0
0.00253596743807 -0.137752494506 0
-0.00861127510751 -0.12372951194 0
0.0168060730217 -0.0986603152214 0
0.0134621728802 -0.120353950855 0
-0.00508327825246 -0.0207238395606 0
0.0129717632861 -0.0103292576954 0
-0.0068258842236 -0.000354919969566 0
-0.0174318160396 -0.017014923228 0
0.00256620963709 -0.0498620979926 0
-0.00685084521218 -0.00153243562275 0
0.0137508139726 -0.00502518092211 0
-0.00177062082076 -0.0798012976845 0
-0.0155557522538 -0.0106065878186 0
-0.0203416636582 -0.0445740388296 0
-0.0089916219871 -0.00046859922624 0
0.0233300828416 -0.0477231041015 0
-0.00689883183086 0.000815312637628 0
0.0244656236857 -0.0262806693602 0
0.0124038026724 -0.101109170057 0
-0.00894432072793 -0.00176036670906 0
-0.0166948565019 -0.0781779407536 0
-0.0144793861213 -0.0216818836588 0
0.0112226112383 -0.0323715113128 0
-0.0144247637091 -0.0241571669945 0
-0.00765995693117 -0.00133174385651 0
-0.00747422095419 -0.0781065479987 0
-0.0068888337015 -0.00107712643945 0
0.0133510785418 -0.00675725672212 0
0.0188884365861 -0.0110240380581 0
-0.00606368532086 -0.000233004944654 0
-0.00638929356958 0.000508709528582 0
0.0201867513801 -0.029147211431 0
-0.00940094118149 -0.0463135571801 0
-0.00619476010444 -0.000937013669933 0
-0.0112064345846 -0.0898778047519 0
-0.0135209553848 -0.00607558194772 0
0.0213675178033 -0.0239036967837 0
-0.00597616788135 1.86101933642e-05 0
0.0211849187798 -0.0376605376529 0
0.0203313848744 -0.00793127622875 0
-0.00536687911016 -0.000695875984408 0
-0.00671750291046 0.00079226253507 0
0.013180914177 -0.0520456108945 0
-0.00633119853115 0.000504598930009 0
-0.00679077154724 0.000907667241882 0
0.0149196693605 -0.0709276789832 0
-0.00253197408056 -0.112721031247 0
-0.00786295100457 -0.000237361616121 0
-0.0112653191122 -0.0128324548926 0
-0.0173532563753 -0.065754128406 0
-0.0107383604511 -0.00770935798961 0
-0.00403457066432 -0.00027935993942 0
0.0199061532957 -0.00837905264063 0
0.000328356606818 -0.0225005318877 0
0.0165575371955 -0.00724576012004 0
-0.00633118213177 -0.000936572730984 0
0.0226253083888 -0.0172027754754 0
-0.0185875497579 -0.0266520768934 0
0.00900299273752 -0.0506387025303 0
-0.00769639865467 -0.000430623736639 0
0.0175368842244 -0.0401653811553 0
-0.0110685465003 -0.00300167604226 0
-0.014667585375 -0.0416208910907 0
-0.018584806277 -0.0183256316613 0
-0.0155648762816 -0.0437760412661 0
0.0206406085387 -0.0766237190515 0
0.0162861276404 -0.0146557955591 0
-0.00650600636418 0.000106166501381 0
0.019479529096 -0.0790582720633 0
0.016576163311 -0.00933869492704 0
-0.00636297737717 -0.000491381407969 0
-0.00723537643317 0.000648558700619 0
0.00457755951111 -0.117974407697 0
-0.00890176422834 -0.00573247686143 0
-0.0111713149296 -0.105206712041 0
0.0196106827517 -0.00630081319168 0
-0.00415623560884 -0.00122453356656 0
-0.00538671531727 -0.0355489081509 0
-0.00627628938628 -0.00155480674424 0
0.016700881259 -0.00518060154349 0
0.00792717441731 -0.13588461218 0
-0.00553932346982 -0.0033001107769 0
-0.0106571324201 -0.111590553448 0
-0.00581702199984 0.000135744817061 0
-0.00539724582109 0.000245565707215 0
-0.00781216053683 -0.100710998427 0
0.0217281357984 -0.0152829414497 0
-0.00362097409865 -0.136442877854 0
0.023800105836 -0.034442998767 0
-0.0185717539637 -0.0526928397063 0
-0.0103067136341 -0.00164363609465 0
0.00867408582062 -0.122821788306 0
-0.00728520266869 -0.00307091208757 0
-0.0127814660218 -0.100729653781 0
0.0151024899578 -0.105440199922 0
-0.0173086110201 -0.0162049201478 0
0.01199291503 -0.00822267512287 0
0.0114030543204 -0.0191877037779 0
-0.00684086681546 0.000374551936341 0
-0.00643942439064 0.000268341592902 0
-0.00465794198564 -0.00938121076182 0
0.011985179914 -0.12671350918 0
-0.00447192695569 -0.0164066478494 0
0.010664002654 -0.0304240671185 0
0.0130391837342 -0.00840282912064 0
-0.00687864044359 -0.000695282160414 0
-0.00683932607803 0.000714237827907 0
0.0239269777509 -0.0571198027326 0
0.0119855528432 -0.0125151090737 0
-0.00687662838078 -9.27799178552e-05 0
-0.00743242662441 0.000617256864328 0
0.00705387376865 -0.0961912156137 0
-0.0111622691755 -0.00439609959904 0
-0.0143806381531 -0.0804301603378 0
-0.0188057268964 -0.0323958717529 0
0.0114652803843 -0.00563446704884 0
-0.0018465668591 -0.000139796175408 0
0.0206500359589 -0.0609466998651 0
-0.0118187426535 -0.0367177674823 0
-0.00693167284723 0.000886570798459 0
-0.00586101902245 -0.114240002389 0
-0.0119199271209 -0.0093665923044 0
-0.0188042811698 -0.0525287994475 0
-0.0079593956857 0.000165575875171 0
-0.00146609980075 -0.000306358354337 0
0.00918163390612 -0.00305199938574 0
-0.0021843764029 -0.000130616869295 0
0.0181252845272 -0.0226156923165 0
-0.00653794862828 0.000496534717445 0
0.0106869241645 -0.0686908697086 0
0.000365307034886 -0.106135513583 0
-0.0118986634799 -0.0238343107967 0
-0.00648715551807 0.000302658619001 0
0.0115530042402 -0.114718215803 0
-0.00768958684385 -0.0018912057599 0
-0.0145551057303 -0.089408652599 0
0.0194568595771 -0.0071200331147 0
-0.00564278640641 -0.000967591340203 0
0.0147665123613 -0.0832222402759 0
0.0148088013134 -0.110585789192 0
0.0211130178927 -0.00912094921626 0
-0.00492439929686 -0.000373846937614 0
-0.00664915769072 0.000798284273178 0
0.00613848055484 -0.13769366375 0
-0.00535982218383 -0.00443838216126 0
-0.00439356897381 -0.029177829265 0
-0.0101394515679 -0.117283719804 0
-0.00934716412287 -0.061124345157 0
0.0212381953924 -0.0761064805383 0
0.0196123219908 -0.00580996989976 0
-0.0054324143813 -0.00156639321116 0
0.000841604269212 -0.0613946356598 0
0.00679031914733 -0.0116557774084 0
0.0249805176606 -0.0350744241271 0
-0.00707732991 -0.0111041148194 0
-0.00310698292925 -0.0405755037158 0
-0.00453787986531 -0.00124787601077 0
-0.0146365924141 -0.00943011825367 0
-0.00389612490149 -5.70391092283e-05 0
-0.0146654909599 -0.00747888081447 0
-0.00620664076196 0.000519652920237 0
0.0155595806542 -0.0974996113068 0
-0.00300811719154 -0.000292176988686 0
-0.00165460301443 -0.000771024930143 0
0.0100548263789 -0.00404561769176 0
0.0133100285054 -0.0058449787018 0
-0.00692436098658 -0.00131822217831 0
0.0212754020574 -0.0295704029998 0
-0.00558655233459 -0.0164585752668 0
-0.00694448740574 -0.00266681748745 0
-0.00655468572563 -0.00165008797735 0
0.0152807014673 -0.00467434064207 0
-0.00399152458152 -0.000633672609938 0
0.01960757243 -0.0108688490157 0
-0.00448756630366 2.30587309494e-05 0
-0.00963462424858 -0.0108077202933 0
0.00531037762573 -0.0176587258061 0
-0.00809504266904 8.00976215142e-05 0
-0.00652307394587 0.000628309138823 0
0.00413365693327 -0.0779573143539 0
-0.0206201141419 -0.0352665520016 0
0.0140316060607 -0.115610526737 0
-0.00478312578555 -0.0463457772683 0
-0.00181040611363 -0.122691345207 0
0.0198380522565 -0.00946046032848 0
-0.00575226119434 -0.000434456268575 0
0.00955867917773 -0.0111304805999 0
-0.0111203193722 -0.0718213822268 0
-0.00743607486065 -0.0704607721702 0
-0.0137839143694 -0.0065155779089 0
-0.0138279726092 -0.0100576451099 0
-0.0198657322334 -0.0506067793897 0
-0.00835954408036 -3.32335734105e-06 0
-0.000738084661263 -0.0949172870307 0
0.00110631378133 -0.144187165947 0
-0.00724841757711 -0.133188636472 0
0.0182646054818 -0.0144247668095 0
0.0149383199846 -0.00712758094259 0
-0.00660627606799 -0.000969239459297 0
-0.0060850980851 -0.000439474334381 0
-0.00571325899638 -0.00159216640707 0
-0.00994232816555 -0.0834870775488 0
-0.0104061102819 -0.0996496998965 0
-0.0037683860128 -0.000586077736174 0
0.0189985069221 -0.0065001336921 0
0.0234052778855 -0.0550480053271 0
0.016549131609 -0.00619662270417 0
-0.0063189871076 -0.00123856352877 0
0.0233749944534 -0.0251531042012 0
0.0098435785536 -0.137081530811 0
-0.00263692567935 -0.0125981634186 0
-0.0114584522872 -0.00289996736936 0
-0.0166394812166 -0.0592438804456 0
0.010686331054 -0.0437309647196 0
-0.0101482577627 -0.0969202935924 0
-0.0068151268374 0.000868636638038 0
-0.00695972790375 -0.00168589211064 0
0.0132395322064 -0.004395722361 0
-0.0124744276373 -0.0168530528899 0
-0.0171012021006 -0.0736386059231 0
-0.00823610225241 -0.000890606911752 0
-0.00602675370216 1.78117022443e-05 0
0.0237765169998 -0.0202183127443 0
0.0195488492169 -0.0133707782066 0
0.0148709980076 -0.00948827323321 0
-0.00660069187254 -0.000473010790343 0
0.0175304785757 -0.03434495164 0
0.0115064517695 -0.0608248306091 0
-0.00674953700746 0.000912223029682 0
0.0214894475227 -0.0591893176581 0
0.0134395186455 -0.0884250507182 0
-0.00975412992259 -0.00156195624015 0
-0.0168695778117 -0.0193143048196 0
-0.0182262433732 -0.0663335412438 0
-0.00678605593132 0.000703770356697 0
-0.018471708575 -0.0401323124731 0
-0.00745552568128 0.000437111760225 0
0.00461370474227 -0.105063471507 0
-0.00755892660665 0.000568283094828 0
-0.0108634717017 -0.00587532581386 0
0.017347192445 -0.0125818137558 0
0.00722455862104 -0.0827118104906 0
-0.00633934674896 -8.2312528795e-05 0
-0.0122122337362 -0.00438312908861 0
-0.019867027362 -0.0290834946696 0
-0.0144803875915 -0.0704256303816 0
0.0174482014742 -0.0977372054488 0
0.0193719651197 -0.0866195082495 0
-0.00717607978759 8.51479598339e-05 0
-0.00850016005557 -0.0109251289343 0
-0.0154066158882 -0.0659307485195 0
-0.00214412528779 -0.142538690112 0
-0.00486193790551 -0.13922879376 0
0.00984444311396 -0.0997946429608 0
-0.00989245769092 -0.0029269120074 0
-0.015653908484 -0.0819971505072 0
-0.016803634287 -0.0275353261788 0
0.010024290787 -0.0170261316289 0
-0.00693517101708 0.000254977685675 0
-0.0067369769992 0.000771956208456 0
0.0200608143757 -0.0503618659071 0
0.00379055923714 -0.127992120377 0
-0.00997861738733 -0.114360732706 0
0.0239801748728 -0.0539601519519 0
0.00928607455936 -0.0218859773743 0
-0.00554444874492 -0.00242206358842 0
-0.0105982811157 -0.106737621389 0
0.0220299055416 -0.01281507116 0
-0.00536692917765 -1.91871447099e-05 0
-0.0200738133694 -0.0344541696922 0
-0.00600239767331 -0.00161430537708 0
0.0178983506171 -0.00520415591082 0
-0.00640604727419 0.00058977096983 0
-0.00850169126552 -0.000402086723902 0
-0.00691068002683 0.000483645483054 0
-0.00712392159239 0.000765507011025 0
0.0171603821332 -0.0172703957738 0
-0.00649096176932 0.000274645800393 0
0.0219206049273 -0.0717298997634 0
-0.00137278687745 -0.000164961664692 0
0.00864933372615 -0.00320262095694 0
-0.00613404425465 0.000316840035027 0