# vtk DataFile Version 2.0
Generated with Solid Solver
ASCII
DATASET UNSTRUCTURED_GRID
POINTS 1163 float 
0.0 3.5 0.0
2.2 3.5 0.0
2.2 4.0 0.0
0.0 4.0 0.0
0.0687499999999 3.5 0.0
0.1375 3.5 0.0
0.20625 3.5 0.0
0.275 3.5 0.0
0.343749999999 3.5 0.0
0.412499999999 3.5 0.0
0.481249999999 3.5 0.0
0.549999999999 3.5 0.0
0.618749999998 3.5 0.0
0.687499999998 3.5 0.0
0.756249999998 3.5 0.0
0.824999999998 3.5 0.0
0.893749999998 3.5 0.0
0.962499999997 3.5 0.0
1.03125 3.5 0.0
1.1 3.5 0.0
1.16875 3.5 0.0
1.2375 3.5 0.0
1.30625 3.5 0.0
1.375 3.5 0.0
1.44375 3.5 0.0
1.5125 3.5 0.0
1.58125 3.5 0.0
1.65 3.5 0.0
1.71875 3.5 0.0
1.7875 3.5 0.0
1.85625 3.5 0.0
1.925 3.5 0.0
1.99375 3.5 0.0
2.0625 3.5 0.0
2.13125 3.5 0.0
2.2 3.56430812579 0.0
2.2 3.6227083524 0.0
2.2 3.67574343203 0.0
2.2 3.72390623714 0.0
2.2 3.76764438299 0.0
2.2 3.80736436348 0.0
2.2 3.84343531161 0.0
2.2 3.87619247056 0.0
2.2 3.90594026646 0.0
2.2 3.93295517223 0.0
2.2 3.9574882542 0.0
2.2 3.97976750927 0.0
2.18000003888 4.0 0.0
2.15999995974 4.0 0.0
2.13999995594 4.0 0.0
2.12000003893 4.0 0.0
2.0999999813 4.0 0.0
2.07999993507 4.0 0.0
2.06000001965 4.0 0.0
2.04000002354 4.0 0.0
2.01999993997 4.0 0.0
1.99999999426 4.0 0.0
1.98000004623 4.0 0.0
1.95999996625 4.0 0.0
1.93999996787 4.0 0.0
1.92000005069 4.0 0.0
1.90000001292 4.0 0.0
1.87999994967 4.0 0.0
1.86000003245 4.0 0.0
1.84000003166 4.0 0.0
1.81999995194 4.0 0.0
1.80000002065 4.0 0.0
1.78000005962 4.0 0.0
1.75999997703 4.0 0.0
1.73999998149 4.0 0.0
1.72000006236 4.0 0.0
1.70000000651 4.0 0.0
1.67999995967 4.0 0.0
1.66000004242 4.0 0.0
1.64000004304 4.0 0.0
1.61999996152 4.0 0.0
1.6000000096 4.0 0.0
1.58000006667 4.0 0.0
1.55999998704 4.0 0.0
1.53999998381 4.0 0.0
1.52000006764 4.0 0.0
1.5000000299 4.0 0.0
1.47999996242 4.0 0.0
1.46000004337 4.0 0.0
1.4400000454 4.0 0.0
1.41999996386 4.0 0.0
1.40000002834 4.0 0.0
1.38000006734 4.0 0.0
1.35999998576 4.0 0.0
1.33999998537 4.0 0.0
1.32000006658 4.0 0.0
1.30000001585 4.0 0.0
1.27999996279 4.0 0.0
1.26000004759 4.0 0.0
1.24000004493 4.0 0.0
1.2199999616 4.0 0.0
1.20000000906 4.0 0.0
1.18000006792 4.0 0.0
1.15999998616 4.0 0.0
1.13999999119 4.0 0.0
1.12000007157 4.0 0.0
1.1 4.0 0.0
1.07999992843 4.0 0.0
1.06000000881 4.0 0.0
1.04000001384 4.0 0.0
1.01999993209 4.0 0.0
0.999999990948 4.0 0.0
0.98000003841 4.0 0.0
0.959999955072 4.0 0.0
0.939999952416 4.0 0.0
0.920000037214 4.0 0.0
0.899999984154 4.0 0.0
0.879999933427 4.0 0.0
0.860000014636 4.0 0.0
0.840000014246 4.0 0.0
0.819999932662 4.0 0.0
0.79999997166 4.0 0.0
0.780000036145 4.0 0.0
0.759999954604 4.0 0.0
0.73999995663 4.0 0.0
0.72000003758 4.0 0.0
0.699999970103 4.0 0.0
0.679999932361 4.0 0.0
0.660000016189 4.0 0.0
0.640000012962 4.0 0.0
0.61999993333 4.0 0.0
0.599999990406 4.0 0.0
0.58000003848 4.0 0.0
0.559999956964 4.0 0.0
0.539999957581 4.0 0.0
0.520000040329 4.0 0.0
0.499999993489 4.0 0.0
0.479999937647 4.0 0.0
0.460000018512 4.0 0.0
0.440000022972 4.0 0.0
0.419999940378 4.0 0.0
0.399999979352 4.0 0.0
0.380000048063 4.0 0.0
0.359999968347 4.0 0.0
0.339999967553 4.0 0.0
0.320000050328 4.0 0.0
0.299999987077 4.0 0.0
0.279999949312 4.0 0.0
0.260000032129 4.0 0.0
0.240000033752 4.0 0.0
0.219999953776 4.0 0.0
0.200000005737 4.0 0.0
0.180000060031 4.0 0.0
0.159999976465 4.0 0.0
0.139999980354 4.0 0.0
0.120000064926 4.0 0.0
0.100000018697 4.0 0.0
0.0799999610675 4.0 0.0
0.0600000440571 4.0 0.0
0.0400000402596 4.0 0.0
0.0199999611169 4.0 0.0
0.0 3.97976750927 0.0
0.0 3.9574882542 0.0
0.0 3.93295517223 0.0
0.0 3.90594026646 0.0
0.0 3.87619247056 0.0
0.0 3.84343531161 0.0
0.0 3.80736436348 0.0
0.0 3.76764438299 0.0
0.0 3.72390623714 0.0
0.0 3.67574343203 0.0
0.0 3.6227083524 0.0
0.0 3.56430812579 0.0
0.249757963562 3.75212589829 0.0
1.94999996706 3.74954522137 0.0
0.488710285893 3.75947702441 0.0
0.726520490699 3.7655965719 0.0
0.967283134849 3.7597072979 0.0
1.20619032017 3.75831098673 0.0
1.45842774915 3.76733088374 0.0
1.69012076678 3.7622332834 0.0
0.130754044069 3.86878249167 0.0
2.06924595593 3.86878249167 0.0
1.8299999918 3.84622455633 0.0
1.56816462369 3.85034872999 0.0
0.369913859351 3.84868157925 0.0
0.608733620231 3.84706187144 0.0
1.33069778866 3.84790908234 0.0
0.84323446252 3.84762979148 0.0
1.08873170817 3.84705870913 0.0
0.250539365135 3.87785524304 0.0
1.94967747948 3.87849609822 0.0
1.73218750075 3.8916046151 0.0
0.468661874066 3.89189322974 0.0
1.47574192429 3.89639134117 0.0
0.704258110321 3.8963912684 0.0
1.18331258449 3.8976320365 0.0
0.949999953744 3.89208018478 0.0
1.64795374468 3.91749779939 0.0
0.548928463645 3.91905583847 0.0
1.38619509199 3.91928594438 0.0
0.788926872841 3.91906062101 0.0
1.27071160784 3.91777932845 0.0
1.02999997296 3.91685174433 0.0
1.81733541416 3.69950870754 0.0
1.86999999106 3.91823503401 0.0
0.071252620538 3.93011431841 0.0
2.12874737946 3.93011431841 0.0
2.07400690796 3.74293885365 0.0
0.125993092043 3.74293885365 0.0
0.32995676804 3.92118147353 0.0
2.00999996712 3.92542383197 0.0
0.190000032884 3.92542383197 0.0
1.56698738743 3.72218882919 0.0
1.33000000474 3.72531695685 0.0
0.848014510843 3.71986098938 0.0
1.09024665585 3.72285801424 0.0
0.610276609989 3.72290563624 0.0
1.54999998543 3.92414142844 0.0
0.629999973146 3.92414137652 0.0
0.869999974031 3.92414141814 0.0
1.11000003579 3.92414141267 0.0
1.79030638642 3.92649353654 0.0
0.370434802927 3.72513294336 0.0
0.410903135411 3.92892991244 0.0
1.33000002597 3.93737911571 0.0
0.129927648482 3.94112154503 0.0
2.07007235152 3.94112154503 0.0
1.93000000928 3.93875927586 0.0
0.26999999072 3.93875927586 0.0
1.40966706061 3.83880068991 0.0
0.770332962441 3.83880062149 0.0
1.24904900022 3.84293377683 0.0
1.01033287484 3.83880060723 0.0
0.530342681434 3.83880307444 0.0
0.189895273961 3.63486992823 0.0
2.00989835291 3.62845703161 0.0
0.998888153878 3.61665036233 0.0
1.47894673873 3.61675180774 0.0
0.51733910646 3.62937665489 0.0
0.705112628302 3.618743723 0.0
1.66672137035 3.63168728155 0.0
1.18508242495 3.61871739348 0.0
1.71000003443 3.94408608591 0.0
0.489999965568 3.94463856597 0.0
1.44983363802 3.94422347836 0.0
0.729999997105 3.94465012565 0.0
1.21016639734 3.94422345842 0.0
0.928621800545 3.94440037102 0.0
2.00626203014 3.81543543551 0.0
0.193627962274 3.81528928332 0.0
1.66628164144 3.83559795895 0.0
1.75661718781 3.81065958113 0.0
1.61143779865 3.94859227761 0.0
0.991673865748 3.95161238438 0.0
0.0604617941233 3.86281264864 0.0
2.13953820588 3.86281264865 0.0
0.300965570716 3.8114148258 0.0
0.2970894797 3.66361086085 0.0
0.398842167194 3.60449226805 0.0
1.51000004877 3.95218393067 0.0
1.90135619383 3.81213273629 0.0
0.669405272842 3.95495208979 0.0
1.07142780558 3.94866325309 0.0
0.592085094025 3.94901139323 0.0
0.831051660929 3.94633985879 0.0
1.14940528892 3.9549521224 0.0
0.44409344258 3.82719938178 0.0
1.49646539728 3.82376850413 0.0
0.683434082651 3.82631713605 0.0
0.92337834777 3.8234861632 0.0
1.16343437877 3.82631615351 0.0
1.90749084149 3.65350700271 0.0
1.8278758005 3.95083911942 0.0
0.37243073327 3.95235211027 0.0
1.29345662549 3.60569899261 0.0
0.813407949226 3.60572380122 0.0
1.29317153636 3.96216077293 0.0
1.367704599 3.96055764734 0.0
1.97071235041 3.96038324024 0.0
0.22928764959 3.96038324024 0.0
2.10610581798 3.66047411138 0.0
0.0938941820177 3.66047411138 0.0
1.67000000105 3.95862953468 0.0
1.74869816704 3.96079301687 0.0
0.531976761939 3.96138655466 0.0
0.451361042387 3.96112774725 0.0
0.771976832233 3.96138887156 0.0
1.88843481911 3.95881554986 0.0
1.61277513709 3.78538823015 0.0
2.13311214501 3.79435403671 0.0
0.0668878549946 3.79435403671 0.0
1.76678797151 3.60286552601 0.0
0.311702446283 3.9611157379 0.0
1.02877762737 3.96159282031 0.0
1.40830122607 3.96143175203 0.0
1.25214210333 3.957355862 0.0
1.59476493393 3.9048774062 0.0
1.56950979124 3.96148017208 0.0
0.890017020275 3.96125792969 0.0
2.03089110475 3.96040268709 0.0
0.169108895255 3.96040268709 0.0
0.939722125942 3.68539157065 0.0
1.41686981874 3.69192854313 0.0
0.0426348006718 3.96101756902 0.0
2.15736519933 3.96101756902 0.0
1.36077308019 3.79177204211 0.0
0.817982383499 3.78962669257 0.0
1.05834720932 3.78780184893 0.0
0.578349529346 3.78781530011 0.0
1.77992711518 3.87652731382 0.0
0.417982153133 3.87594990465 0.0
1.84363633012 3.77741329286 0.0
1.52244994479 3.87704541475 0.0
0.657426528912 3.87734838249 0.0
1.13742651778 3.87734834025 0.0
0.898116026439 3.8800466833 0.0
1.56984259435 3.64465823131 0.0
1.08983016076 3.6446495206 0.0
0.609942357805 3.64483976081 0.0
1.29451769374 3.79627773068 0.0
0.0893439668432 3.96574839433 0.0
2.11065603316 3.96574839433 0.0
2.01422398896 3.86980625824 0.0
0.185776011038 3.86980625824 0.0
0.305957237756 3.87340573745 0.0
1.72977480551 3.68665973332 0.0
1.25418096296 3.69351129461 0.0
0.629999973146 3.96272981435 0.0
1.11000003579 3.96272983221 0.0
0.772975283819 3.69297597031 0.0
1.89089074715 3.86951346173 0.0
0.445448577516 3.69456159386 0.0
1.82621986864 3.89678318705 0.0
2.07135424223 3.81165410377 0.0
0.128645757768 3.81165410377 0.0
0.373320289473 3.89968791662 0.0
1.79000004014 3.96541718891 0.0
0.383302070088 3.78976392323 0.0
0.409457623385 3.96502881851 0.0
1.55531527123 3.78787141386 0.0
1.34861332978 3.89383287415 0.0
0.593245985735 3.89483466551 0.0
0.833245353375 3.89479604398 0.0
1.0732444554 3.8948349405 0.0
0.911896623122 3.59194725763 0.0
0.187580554011 3.70699710313 0.0
2.01241944599 3.70699710313 0.0
1.39201907571 3.59233063354 0.0
2.09635520798 3.90516200201 0.0
0.103644792024 3.90516200201 0.0
1.89086147526 3.72621461413 0.0
1.02102684616 3.70044819701 0.0
1.49813234221 3.70194667869 0.0
0.53965669049 3.70593418829 0.0
1.63719578665 3.69772473547 0.0
0.685447658936 3.70127585046 0.0
1.16541741817 3.70128744764 0.0
0.901649266036 3.76287226775 0.0
0.992351690321 3.90662993531 0.0
1.69131894868 3.90657323657 0.0
1.9699561555 3.91599371502 0.0
0.230043844497 3.91599371502 0.0
1.61980840676 3.85005402918 0.0
2.04685187594 3.90639759008 0.0
0.153148124058 3.90639759008 0.0
0.512139828486 3.90538520837 0.0
1.43057458921 3.90702644399 0.0
0.749149996349 3.90689574876 0.0
[...]
POINT_DATA 1163
VECTORS Displacement float
0.0 0.0 0
0.0 0.0 0
0.000170926581876 4.97819007287e-05 0
-0.00017176279582 -1.90438591329e-05 0
0.0 0.0 0
0.0 0.0 0
0.0 0.0 0
0.0 0.0 0
0.0 0.0 0
0.0 0.0 0
0.0 0.0 0
0.0 0.0 0
0.0 0.0 0
0.0 0.0 0
0.0 0.0 0
0.0 0.0 0
0.0 0.0 0
0.0 0.0 0
0.0 0.0 0
0.0 0.0 0
0.0 0.0 0
0.0 0.0 0
0.0 0.0 0
0.0 0.0 0
0.0 0.0 0
0.0 0.0 0
0.0 0.0 0
0.0 0.0 0
0.0 0.0 0
0.0 0.0 0
0.0 0.0 0
0.0 0.0 0
0.0 0.0 0
0.0 0.0 0
0.0 0.0 0
7.04128610917e-05 -3.79684263155e-05 0
0.000125809705823 -3.75562363763e-05 0
0.000165250169931 -2.31209150285e-05 0
0.000185510000974 -3.7675368077e-06 0
0.000193851994302 1.37419328015e-05 0
0.000194284468013 2.80649255891e-05 0
0.000190235019656 3.80973658228e-05 0
0.000185368167993 4.45585866863e-05 0
0.000180421043449 4.81378815364e-05 0
0.000176421502574 4.9447868397e-05 0
0.00017374808227 4.98748314743e-05 0
0.000172070642294 4.98345517971e-05 0
0.000170978569441 4.86594358747e-05 0
0.000171080574533 4.79059356407e-05 0
0.000170919608568 4.77352640574e-05 0
0.000170310537979 4.82032877859e-05 0
0.000168998300988 4.92893587092e-05 0
0.000166752713704 5.0617609088e-05 0
0.000163431249907 5.246483186e-05 0
0.000158889117834 5.39290737355e-05 0
0.000152953689478 5.55832036572e-05 0
0.000145727955273 5.63881438506e-05 0
0.000136560746287 5.6695134531e-05 0
0.000125857289613 5.58942806019e-05 0
0.000113461719784 5.3455236389e-05 0
9.88221675832e-05 4.9930914936e-05 0
8.23698074566e-05 4.39117035861e-05 0
6.30771156687e-05 3.60241428213e-05 0
4.19570584501e-05 2.49298915622e-05 0
1.76611348076e-05 1.11585401658e-05 0
-8.89973131592e-06 -6.94403128991e-06 0
-3.94240543451e-05 -2.92160102184e-05 0
-7.27625253962e-05 -5.66380625836e-05 0
-0.000108211807778 -9.03473766012e-05 0
-0.000148405604367 -0.00012891163266 0
-0.00019172663636 -0.000176297235003 0
-0.000240374735768 -0.000231093607006 0
-0.000291317774739 -0.000296178310606 0
-0.000348661862275 -0.000371015620897 0
-0.000409531354055 -0.000459330829263 0
-0.000475628978496 -0.000560678776449 0
-0.000543224997237 -0.000677279616212 0
-0.000616031568467 -0.000813179914928 0
-0.000697632140807 -0.000965596892297 0
-0.000780507571739 -0.00114102875982 0
-0.000869711327789 -0.00134177876221 0
-0.000961735280538 -0.00157132964446 0
-0.00105965306575 -0.00183168529365 0
-0.00116309449577 -0.00213063702479 0
-0.00127347239976 -0.0024762769 0
-0.00137857840748 -0.00287356997966 0
-0.0014935984005 -0.0033394567169 0
-0.00159876232833 -0.00387059591917 0
-0.00170281618186 -0.00449842782175 0
-0.00179325650695 -0.00525435202815 0
-0.00189528639743 -0.00622083430009 0
-0.00189572704135 -0.00748545887969 0
-0.00171782701742 -0.00961118293997 0
-0.00136779422576 -0.0112407888649 0
-0.000905815179945 -0.0123965283924 0
-0.000462267877335 -0.0130850934706 0
3.60162686489e-05 -0.0133115632261 0
0.000490063872169 -0.0130889008541 0
0.000962874632781 -0.0123993076325 0
0.00142521131779 -0.0112447768435 0
0.00179881560177 -0.00961977409199 0
0.00199758546277 -0.00749384076955 0
0.00194527730121 -0.0062164424677 0
0.00184233161219 -0.00526189993171 0
0.00175333418942 -0.00450242468455 0
0.00163120392406 -0.00386366840917 0
0.00152508068035 -0.00332793146035 0
0.00142212133496 -0.00286763429902 0
0.0013089316538 -0.00246815893629 0
0.00119929976206 -0.00212433916745 0
0.00109264962763 -0.00182522639886 0
0.000997008097318 -0.00156381560899 0
0.000902130846344 -0.00133618339791 0
0.000815348121777 -0.00113359251594 0
0.000730341992249 -0.000957184325004 0
0.000650587219087 -0.00080438427134 0
0.00057617683354 -0.000671263320324 0
0.000506684971796 -0.000554269562545 0
0.000440603453056 -0.000453410995426 0
0.000381524049152 -0.000365393392038 0
0.00032498416218 -0.000290019691741 0
0.000273379384257 -0.000224527108902 0
0.000225894445324 -0.000169321416012 0
0.000182196832928 -0.000122182710123 0
0.000142397465372 -8.25404884465e-05 0
0.000106835601516 -4.84832159136e-05 0
7.36268418294e-05 -2.05347740958e-05 0
4.420843805e-05 2.80954708246e-06 0
1.6855718676e-05 2.10107997404e-05 0
-6.93631445445e-06 3.60366703387e-05 0
-2.87509542337e-05 4.75645882907e-05 0
-4.78869115507e-05 5.6678807982e-05 0
-6.53117977743e-05 6.28492697853e-05 0
-8.04155417298e-05 6.75032735079e-05 0
-9.38724853661e-05 6.97162530867e-05 0
-0.000105441380502 7.10832140021e-05 0
-0.000115941095496 7.08390499696e-05 0
-0.000125096405938 6.95479131158e-05 0
-0.000132836852788 6.75119585647e-05 0
-0.000139741431636 6.45396722362e-05 0
-0.000145483486876 6.11140680638e-05 0
-0.000150595212824 5.70808897385e-05 0
-0.000154834682087 5.2768198351e-05 0
-0.000158468153446 4.79903487533e-05 0
-0.000161488452483 4.31353362938e-05 0
-0.000164011262219 3.79764749882e-05 0
-0.000166132468882 3.26774379287e-05 0
-0.000167775191785 2.73461386881e-05 0
-0.000169099416803 2.18790512578e-05 0
-0.000170108759339 1.65101149333e-05 0
-0.000170838228661 1.10817816095e-05 0
-0.000171333719574 5.78938145842e-06 0
-0.000171623320049 5.57514886606e-07 0
-0.000171759051394 -4.53436353571e-06 0
-0.000171796161729 -9.48438224579e-06 0
-0.000171774254077 -1.43054811195e-05 0
-0.000166971748167 -1.90322670048e-05 0
-0.000161789250532 -1.90253989952e-05 0
-0.000156265550435 -1.91251745515e-05 0
-0.000150408522429 -1.94281234396e-05 0
-0.000144053704154 -2.024376726e-05 0
-0.000136852637587 -2.16891622171e-05 0
-0.000128523598646 -2.38578631158e-05 0
-0.00011796034823 -2.68304846596e-05 0
-0.000104248903534 -3.0036072824e-05 0
-8.61234725013e-05 -3.25084761947e-05 0
-6.18580907281e-05 -3.1978020955e-05 0
-3.32455246076e-05 -2.46729945302e-05 0
-0.000136739810664 3.30029999812e-05 0
0.000258281936882 3.84942885264e-05 0
-0.000246614701833 4.30099007402e-05 0
-0.000530816153162 -0.000276598001276 0
-0.00100832164976 -0.0020105901963 0
7.38689393528e-05 -0.00444908652362 0
0.000993155231097 -0.00175474224814 0
0.000536092494212 -0.000228775491508 0
-0.000143848234088 1.3586199845e-05 0
0.000191154071365 5.13361411811e-05 0
0.000244239804227 2.03179317636e-05 0
0.00045427054251 -0.000830445326843 0
-0.000159524911406 7.03816150526e-05 0
-0.000227012283011 -9.05561885224e-06 0
0.000949962214059 -0.00468275120391 0
-0.000462088094541 -0.000913352896569 0
-0.000896270925972 -0.00515147878023 0
-0.000147028726619 4.71352511287e-05 0
0.000187870370592 6.48511313467e-05 0
0.000158752086528 -0.000109313711869 0
-0.000141361411283 7.7591658202e-05 0
0.000281701768293 -0.0018284336463 0
-0.000109173375242 -0.000195633739887 0
-0.000172811760271 -0.00855727523481 0
-0.000352704340039 -0.00222203515578 0
3.1618459231e-05 -0.000376644069087 0
-9.36448283332e-05 4.94033994735e-05 0
0.000263291327484 -0.00363975220773 0
2.43005929029e-05 -0.000553989074281 0
0.000632613717139 -0.00794677961889 0
-0.000337002272833 -0.00409791995943 0
0.000381346879253 -3.36214122327e-05 0
0.000135089387737 4.84730560821e-05 0
-0.000155609814925 -1.72957070732e-06 0
0.000176649646926 4.7718763337e-05 0
0.000208730427785 2.975926305e-05 0
-0.000115496236326 5.80410133878e-06 0
-0.000142191460373 6.74113270509e-05 0
0.000165990622788 6.21276768112e-05 0
-0.000152153794578 3.13162731811e-05 0
0.000817175333426 -0.000708123404764 0
0.000854603561267 -0.00290043696942 0
-0.000831308239568 -0.000790801274199 0
-0.000734606151598 -0.00306095735863 0
-0.000390472315264 -5.01403896097e-05 0
-5.01422274361e-05 -0.000993816341952 0
-4.56207213301e-05 -3.62083275518e-05 0
8.34045175473e-05 -0.00117424636733 0
-0.000565592308102 -0.0072881399771 0
8.44351222777e-05 -1.61723768652e-05 0
-0.000176050992997 4.08538686595e-05 0
-0.000127159427359 7.90869450045e-05 0
0.000263649095043 -0.00561659608575 0
-0.000156910056757 1.42451280962e-05 0
0.000170144310073 5.37440880469e-05 0
0.000137060005293 6.25652849408e-05 0
-0.000148280202973 5.30149996736e-05 0
0.00089398042074 -0.00282400932951 0
-0.000389234910683 -0.000453326254819 0
0.000548609780639 -0.00632385546251 0
-0.000911682832791 -0.00322153391798 0
-0.000205647120941 5.19736855541e-05 0
-8.02959789418e-05 7.24754826744e-06 0
0.000173146292081 8.7598290408e-06 0
-0.000685238772982 -0.0010833836197 0
0.000722579227992 -0.000747595333411 0
-0.000239367762081 -1.10989391628e-05 0
-0.000457227736244 -0.000164983935682 0
0.000536201183053 -0.000221591991722 0
-7.23572467283e-05 -0.00171783804894 0
-3.23772578614e-05 -0.000171114392797 0
-9.02305065063e-05 7.16750362337e-05 0
-0.000282586392158 -0.00225705546406 0
0.000114061347337 -0.000291731729858 0
9.02633065166e-05 -0.0105975609712 0
0.000321823418381 -0.00190179097223 0
0.000216613477764 5.3688333287e-05 0
-0.000138076474062 2.80193729738e-05 0
0.0003879346251 -0.0003023776308 0
0.000357626979071 -7.49626049754e-05 0
-0.000181293010258 -0.000568380279732 0
0.000408361024427 -0.00308990691263 0
-0.000141810712865 -5.81225295947e-06 0
0.000190338441531 4.14586789386e-05 0
-0.000153081806963 5.22723320444e-05 0
-0.000123838384548 2.04414794884e-05 0
-0.000130556306876 4.45540262605e-06 0
-0.000356227922546 -0.00140787447307 0
0.000254271908127 4.74541332901e-05 0
7.70567447e-05 -0.000118854568585 0
1.01792619795e-05 -0.00573027128314 0
-1.78360908065e-05 8.51302005499e-06 0
0.000255792577824 -0.000840779119043 0
-0.000125157367367 -0.0100095868456 0
-0.000185909570359 7.08661669135e-05 0
0.000744699323382 -0.00148467365149 0
-0.000331863295125 -0.000146549322003 0
-0.000770306173968 -0.00171307025371 0
-0.000374525852039 -0.00603539061657 0
0.000261626771688 1.67261339856e-07 0
6.47851341518e-05 1.77717562133e-05 0
-0.000130063685743 7.39490135567e-05 0
0.000401981183856 -0.00137041837658 0
-0.00057700069898 -0.000350876904964 0
-5.57086913916e-05 -0.00780014393729 0
-0.000493816054394 -0.00422627103614 0
0.000141162656994 6.2290768268e-05 0
-0.00015486261175 4.17597329977e-05 0
0.000167134845908 8.22248615717e-06 0
-8.16736885855e-05 -4.8144718728e-06 0
-0.000145690226571 -0.000302082823698 0
-3.74901421571e-05 -8.97569263998e-05 0
-4.87336862814e-05 5.28013089864e-05 0
-9.87702971423e-05 7.59418192421e-05 0
0.000265584644303 -0.000478989793228 0
9.93248096267e-05 5.05644671916e-05 0
0.000633274825064 -0.000529830661233 0
0.000201454771848 3.05755626801e-05 0
-0.000126734171968 -6.59073935177e-06 0
0.000336620569177 -7.99055401177e-05 0
-0.000143359265178 6.22643826866e-05 0
0.000564040647093 -0.00410489173547 0
-0.000571151428166 -0.00309610618756 0
0.000170685081522 -0.010073869564 0
9.76757446359e-05 -0.000652751082459 0
-0.000347127219501 -0.000851362667312 0
0.000494857588443 -0.00140249077105 0
0.000159630985314 5.80103975358e-05 0
-0.000159303196518 2.51077325107e-05 0
-0.000921299406323 -0.00127889337024 0
0.000959746415234 -0.00167365064236 0
-0.000162544006158 -8.86067326492e-06 0
0.00017319001647 4.77468398219e-05 0
0.00102867392132 -0.00335813398573 0
-0.000651337260943 -0.000702767510471 0
-0.000971760364681 -0.00363271872443 0
-0.000300134417107 6.25339253085e-06 0
0.000198261318129 -2.80364050841e-05 0
-0.000152738842104 7.82686102072e-05 0
0.000323594044467 1.11155481739e-05 0
0.000356528817045 -0.00125189720643 0
-0.000169226862318 -8.26054279437e-05 0
-0.00064649326808 -0.00703203696013 0
-0.000343313175723 -0.00146916084799 0
0.000723812543721 -0.000509701788413 0
-0.000550529610073 -0.00187022602658 0
-0.000359584124365 -6.27397775186e-05 0
0.000815414903521 -0.00456105485795 0
-0.000163157266618 3.12599443782e-06 0
0.00017067535518 4.92658396391e-05 0
0.000192271956985 5.99016400678e-05 0
-0.000144964877207 2.9090017558e-05 0
-0.000148782810836 6.07173174984e-05 0
0.000505780863876 -0.000140466903318 0
0.000377085053469 -0.00295431769638 0
4.86743118161e-05 -4.67727536225e-05 0
9.02026252703e-05 -0.00801225058097 0
-0.000677324497967 -0.000393486660229 0
0.000198503755617 5.5591992186e-05 0
-0.00021833546226 2.72163282838e-05 0
0.000156649682986 2.27079961069e-05 0
0.000206341598287 4.39273154757e-05 0
-0.000132991815118 1.08081746969e-05 0
-0.000142816898515 7.52251603081e-05 0
3.27186143595e-06 -2.67127978061e-05 0
-0.000178227057807 6.03789793586e-05 0
-0.000115749779621 7.62212524579e-05 0
0.000744623684577 -0.000889321451709 0
0.000719927101572 -0.00467070026917 0
-0.00012536292877 1.3711092511e-05 0
-0.000146412965872 -0.000842931496354 0
-0.000738437338452 -0.00539006994223 0
-0.000603988078094 -0.000564036665247 0
-0.000111293486184 1.51931618787e-05 0
0.000221489291019 2.74804365002e-05 0
0.000578087986709 -0.00088369913453 0
0.000180861472847 4.99398938613e-05 0
-0.000150380256642 6.79631253547e-06 0
0.000304328264288 1.65987293293e-05 0
-0.000910747462151 -0.00210107906365 0
0.000932028367525 -0.00109471697594 0
-0.000306244856313 2.89416465883e-06 0
0.000678881443187 -0.000368010757771 0
-0.000511555811033 -0.000168704809681 0
-0.000240583232746 -0.0031567268599 0
-0.000899629742673 -0.00131804569485 0
-0.000314143255285 -0.0030842143061 0
9.89212557698e-05 -0.000217377567993 0
0.000163790585262 6.52371426101e-05 0
-0.000149496719408 4.24026344791e-05 0
0.000381751907592 -0.000508206433589 0
0.000177626839625 5.68984278611e-05 0
-0.000150117645896 2.0646087925e-05 0
-0.000122157189623 6.741221677e-05 0
0.000275543713628 -0.00259429414329 0
-5.77680307829e-05 -0.000356489058917 0
0.000318906834756 -0.00891228943118 0
0.000194016819793 1.47534603132e-05 0
-0.000106532611972 -1.03572812537e-05 0
0.000687297827934 -0.00238829985571 0
-0.000149439080178 -9.95664983689e-06 0
0.000182204999389 4.46984681725e-05 0
-0.000593466986885 -0.00182565388532 0
0.000164356840729 -0.000208758702627 0
4.6320187109e-05 -0.0115692691755 0
-0.000144824802798 4.2340639673e-05 0
-0.000155045792944 4.30117318151e-05 0
0.000796280819524 -0.0062672399733 0
0.000223696984322 5.84074649442e-05 0
-0.000446435260797 -0.00569731390459 0
0.000435896141518 -7.80097456067e-05 0
-0.000681434414102 -0.00436162808323 0
-0.000376357801345 -6.99002872643e-05 0
-0.000106409527278 -0.00174549785533 0
2.10219704588e-05 -0.000181885926206 0
-0.000181502447529 -0.00983178913994 0
-0.000244315742896 -0.000441725898418 0
-0.00074525365456 -0.00112048232854 0
0.000214148726756 -2.58545272216e-05 0
0.000120197641605 5.90181874397e-05 0
-0.000150670584739 5.22060833574e-05 0
-1.87542687961e-05 3.30159716506e-05 0
0.000351832047189 -0.000628297757469 0
-0.000439251831615 -0.00108976901626 0
0.000478190576051 -0.00111076025148 0
7.10068584922e-05 3.67327425064e-05 0
0.000166180940787 5.3142911148e-05 0
-0.000162119788949 1.41950328798e-05 0
-0.000137901311737 6.69198366883e-05 0
0.000318349577289 -0.000142886938723 0
0.000148818673026 6.02985771327e-05 0
-0.000158621852207 3.40674941394e-05 0
-0.000183968554071 6.9884119312e-05 0
0.000731402576421 -0.00203593344793 0
-0.000310202497265 -0.000256311120854 0
8.53686148788e-06 -0.00665788026191 0
-0.000759296503975 -0.00234515240011 0
0.000157016577952 -7.8942496317e-06 0
-6.02315021244e-05 3.53100622054e-06 0
8.64030696418e-05 -7.45810618021e-05 0
8.78923035223e-05 -0.0024880340347 0
-0.000124312778407 7.97521069079e-05 0
0.000716597373032 -0.00629926113445 0
-0.000267585502303 -0.000601651766841 0
-0.000807261524223 -0.00409096264022 0
-0.000168270501118 4.18888959023e-05 0
-4.20251726106e-05 -1.13690807051e-06 0
9.78221925716e-05 5.93795534879e-07 0
-8.00643826645e-05 2.98839540102e-06 0
0.000157497422592 6.04018624456e-05 0
-0.000146107194334 5.96572995384e-05 0
0.000906957973786 -0.00127036063862 0
0.00078286950897 -0.00357196966201 0
-5.79275194197e-05 -0.00160594348996 0
-0.000209976692258 4.79588621325e-05 0
9.89727338858e-06 -0.00130466580913 0
-4.59646933164e-05 -9.89400516777e-05 0
-0.000497140429377 -0.00846306543638 0
0.000197932350288 4.28002954671e-05 0
-0.000137349361908 3.93174579907e-06 0
-0.000118883379144 -0.000183302782271 0
-0.000111735728729 -0.000788184285949 0
0.000221538172899 4.20563458591e-05 0
-0.000127329408523 1.84556537721e-05 0
-7.22063570199e-05 6.74908434481e-05 0
-0.000627443008926 -0.00219391980737 0
0.000204107499511 -0.000286731722967 0
0.000674339637056 -0.00197317711647 0
2.26540399462e-05 -0.0116980676063 0
0.000546975782216 -0.00386489958485 0
0.000239337733686 -0.000308350583475 0
0.000196201942487 3.27357018513e-05 0
-0.000132429495858 -1.26909285985e-05 0
0.00100828669081 -0.00227469798681 0
0.000359885016364 -0.00017714582431 0
0.000331420047487 -1.5157380266e-05 0
-0.000188152275728 -0.000793609777569 0
0.00071997958257 -0.00193977698937 0
-0.000240334919229 -7.23228962332e-05 0
-0.000788369733698 -0.000666559311179 0
-0.00011643359657 2.07752081634e-05 0
-0.000676826649435 -0.00048508185336 0
-0.000161841122076 6.10718033308e-05 0
0.00024856478313 -0.000848371083263 0
-0.000130309467027 -6.88782217914e-06 0
-4.40417437784e-05 -1.19602804283e-05 0
9.60736680632e-05 -1.04706726552e-05 0
0.000171849320553 4.80018279366e-05 0
-0.000164257372988 -3.34536886419e-06 0
0.000184084176329 4.37687438291e-05 0
0.00012374298449 -0.00103478410479 0
-0.00038778753929 -0.000172344245454 0
-0.00015557708882 -1.19372478932e-05 0
0.000177135785464 4.69439679016e-05 0
-0.000191371286297 -2.81502998202e-05 0
0.00025201676087 1.59610886885e-05 0
-0.000154959257154 2.29177089567e-05 0
-0.000450577968517 -0.000816692411985 0
0.000520713435509 -0.00040573530719 0
-0.000259749117182 3.92969844332e-05 0
-0.000148678002907 6.67340164041e-05 0
0.00101539232708 -0.00226169199414 0
-0.00102019519015 -0.002752292197 0
-0.000362511057318 -0.000601721098259 0
0.000918522551901 -0.00307040840694 0
0.00037624758795 -0.00456763780681 0
0.000201981131217 5.36032619178e-05 0
-0.000140153154902 2.09918291646e-05 0
0.000303530749031 -9.72553609497e-05 0
0.000475825326701 -0.00493890989977 0
0.000955272819891 -0.00480357283482 0
-0.000560546663361 -0.000406643748896 0
-0.000448357076933 -0.000650823479673 0
-0.000940864684628 -0.00404443906648 0
-0.000211579112412 3.37842167561e-05 0
0.000981255859464 -0.00361321951761 0
-0.000980950135075 -0.00353343615629 0
-0.000377546719173 -0.00982208590938 0
0.000314985707012 -2.53255697006e-05 0
0.00017412182118 5.03902913586e-05 0
-0.000156251501616 6.12032237157e-06 0
3.97886861181e-05 -1.5578834402e-05 0
0.000105900779519 -9.39397911195e-05 0
0.000472939741253 -0.00658929238824 0
0.000252848806823 -0.00987628904488 0
-0.000101065382913 4.42566872694e-06 0
0.000198862528049 2.14088415131e-05 0
0.00043694970894 -0.000204686899659 0
0.000181454705508 4.65823069138e-05 0
-0.000150301621575 -1.6721137057e-06 0
0.000244121749154 4.44037132713e-05 0
-0.00069570387776 -0.00143146134273 0
0.000554480490058 -0.000858866783139 0
-0.000436575920043 -0.000154041460568 0
-0.000345704520945 -0.00480502317356 0
1.6919649824e-05 -2.16734307723e-06 0
0.000626698779908 -0.00698187365323 0
-0.000122917731677 7.35910362818e-05 0
-0.000165244164917 -1.26703933104e-05 0
0.000172486650091 4.82693319377e-05 0
-0.000200913775373 -0.00112247593125 0
-0.000779855537779 -0.00645693207954 0
-0.000132039563239 -2.76993776291e-05 0
-0.000145003647059 3.83944042472e-05 0
0.000292550031801 3.15584014851e-05 0
0.000195341180373 6.27829874255e-05 0
0.000168824096692 5.73072189081e-05 0
-0.000154758421566 2.13549758742e-05 0
0.000112054262542 3.39162669449e-05 0
-4.65655618886e-05 -5.99878892452e-05 0
-0.000103622637515 7.4538511437e-05 0
0.000532025153043 -0.00033978228614 0
0.000582978196318 -0.00112809812913 0
-0.000272183123667 -6.52387417025e-05 0
-0.000635709038793 -0.00133085006343 0
-0.000718969020236 -0.00572896559985 0
-0.000169784207546 7.28226965465e-05 0
-0.000698785645119 -0.0029379255723 0
-0.000217608456391 5.96689327977e-05 0
0.000661145670615 -0.00254567852624 0
-0.000165518762504 6.63411277249e-05 0
-0.000236078088376 -0.000359612822873 0
0.000176643332125 6.38422115617e-05 0
0.000910463789657 -0.00188918838546 0
-0.000148471164094 3.51115756871e-05 0
-0.000441258081643 -0.000255037951554 0
-0.000931272416808 -0.00215782441997 0
1.4798762925e-05 -0.00554969533614 0
7.43441737259e-06 -0.000514738494297 0
0.000186921419986 -0.000443953522111 0
-7.32920675277e-05 2.93787417083e-05 0
7.00557396154e-05 -0.000716858318271 0
-0.00042484762167 -0.00509616620455 0