# vtk DataFile Version 2.0
Generated with Solid Solver
ASCII
DATASET UNSTRUCTURED_GRID
POINTS 1163 float 
0.0 3.5 0.0
2.2 3.5 0.0
2.2 4.0 0.0
0.0 4.0 0.0
0.0687499999999 3.5 0.0
0.1375 3.5 0.0
0.20625 3.5 0.0
0.275 3.5 0.0
0.343749999999 3.5 0.0
0.412499999999 3.5 0.0
0.481249999999 3.5 0.0
0.549999999999 3.5 0.0
0.618749999998 3.5 0.0
0.687499999998 3.5 0.0
0.756249999998 3.5 0.0
0.824999999998 3.5 0.0
0.893749999998 3.5 0.0
0.962499999997 3.5 0.0
1.03125 3.5 0.0
1.1 3.5 0.0
1.16875 3.5 0.0
1.2375 3.5 0.0
1.30625 3.5 0.0
1.375 3.5 0.0
1.44375 3.5 0.0
1.5125 3.5 0.0
1.58125 3.5 0.0
1.65 3.5 0.0
1.71875 3.5 0.0
1.7875 3.5 0.0
1.85625 3.5 0.0
1.925 3.5 0.0
1.99375 3.5 0.0
2.0625 3.5 0.0
2.13125 3.5 0.0
2.2 3.56430812579 0.0
2.2 3.6227083524 0.0
2.2 3.67574343203 0.0
2.2 3.72390623714 0.0
2.2 3.76764438299 0.0
2.2 3.80736436348 0.0
2.2 3.84343531161 0.0
2.2 3.87619247056 0.0
2.2 3.90594026646 0.0
2.2 3.93295517223 0.0
2.2 3.9574882542 0.0
2.2 3.97976750927 0.0
2.18000003888 4.0 0.0
2.15999995974 4.0 0.0
2.13999995594 4.0 0.0
2.12000003893 4.0 0.0
2.0999999813 4.0 0.0
2.07999993507 4.0 0.0
2.06000001965 4.0 0.0
2.04000002354 4.0 0.0
2.01999993997 4.0 0.0
1.99999999426 4.0 0.0
1.98000004623 4.0 0.0
1.95999996625 4.0 0.0
1.93999996787 4.0 0.0
1.92000005069 4.0 0.0
1.90000001292 4.0 0.0
1.87999994967 4.0 0.0
1.86000003245 4.0 0.0
1.84000003166 4.0 0.0
1.81999995194 4.0 0.0
1.80000002065 4.0 0.0
1.78000005962 4.0 0.0
1.75999997703 4.0 0.0
1.73999998149 4.0 0.0
1.72000006236 4.0 0.0
1.70000000651 4.0 0.0
1.67999995967 4.0 0.0
1.66000004242 4.0 0.0
1.64000004304 4.0 0.0
1.61999996152 4.0 0.0
1.6000000096 4.0 0.0
1.58000006667 4.0 0.0
1.55999998704 4.0 0.0
1.53999998381 4.0 0.0
1.52000006764 4.0 0.0
1.5000000299 4.0 0.0
1.47999996242 4.0 0.0
1.46000004337 4.0 0.0
1.4400000454 4.0 0.0
1.41999996386 4.0 0.0
1.40000002834 4.0 0.0
1.38000006734 4.0 0.0
1.35999998576 4.0 0.0
1.33999998537 4.0 0.0
1.32000006658 4.0 0.0
1.30000001585 4.0 0.0
1.27999996279 4.0 0.0
1.26000004759 4.0 0.0
1.24000004493 4.0 0.0
1.2199999616 4.0 0.0
1.20000000906 4.0 0.0
1.18000006792 4.0 0.0
1.15999998616 4.0 0.0
1.13999999119 4.0 0.0
1.12000007157 4.0 0.0
1.1 4.0 0.0
1.07999992843 4.0 0.0
1.06000000881 4.0 0.0
1.04000001384 4.0 0.0
1.01999993209 4.0 0.0
0.999999990948 4.0 0.0
0.98000003841 4.0 0.0
0.959999955072 4.0 0.0
0.939999952416 4.0 0.0
0.920000037214 4.0 0.0
0.899999984154 4.0 0.0
0.879999933427 4.0 0.0
0.860000014636 4.0 0.0
0.840000014246 4.0 0.0
0.819999932662 4.0 0.0
0.79999997166 4.0 0.0
0.780000036145 4.0 0.0
0.759999954604 4.0 0.0
0.73999995663 4.0 0.0
0.72000003758 4.0 0.0
0.699999970103 4.0 0.0
0.679999932361 4.0 0.0
0.660000016189 4.0 0.0
0.640000012962 4.0 0.0
0.61999993333 4.0 0.0
0.599999990406 4.0 0.0
0.58000003848 4.0 0.0
0.559999956964 4.0 0.0
0.539999957581 4.0 0.0
0.520000040329 4.0 0.0
0.499999993489 4.0 0.0
0.479999937647 4.0 0.0
0.460000018512 4.0 0.0
0.440000022972 4.0 0.0
0.419999940378 4.0 0.0
0.399999979352 4.0 0.0
0.380000048063 4.0 0.0
0.359999968347 4.0 0.0
0.339999967553 4.0 0.0
0.320000050328 4.0 0.0
0.299999987077 4.0 0.0
0.279999949312 4.0 0.0
0.260000032129 4.0 0.0
0.240000033752 4.0 0.0
0.219999953776 4.0 0.0
0.200000005737 4.0 0.0
0.180000060031 4.0 0.0
0.159999976465 4.0 0.0
0.139999980354 4.0 0.0
0.120000064926 4.0 0.0
0.100000018697 4.0 0.0
0.0799999610675 4.0 0.0
0.0600000440571 4.0 0.0
0.0400000402596 4.0 0.0
0.0199999611169 4.0 0.0
0.0 3.97976750927 0.0
0.0 3.9574882542 0.0
0.0 3.93295517223 0.0
0.0 3.90594026646 0.0
0.0 3.87619247056 0.0
0.0 3.84343531161 0.0
0.0 3.80736436348 0.0
0.0 3.76764438299 0.0
0.0 3.72390623714 0.0
0.0 3.67574343203 0.0
0.0 3.6227083524 0.0
0.0 3.56430812579 0.0
0.249757963562 3.75212589829 0.0
1.94999996706 3.74954522137 0.0
0.488710285893 3.75947702441 0.0
0.726520490699 3.7655965719 0.0
0.967283134849 3.7597072979 0.0
1.20619032017 3.75831098673 0.0
1.45842774915 3.76733088374 0.0
1.69012076678 3.7622332834 0.0
0.130754044069 3.86878249167 0.0
2.06924595593 3.86878249167 0.0
1.8299999918 3.84622455633 0.0
1.56816462369 3.85034872999 0.0
0.369913859351 3.84868157925 0.0
0.608733620231 3.84706187144 0.0
1.33069778866 3.84790908234 0.0
0.84323446252 3.84762979148 0.0
1.08873170817 3.84705870913 0.0
0.250539365135 3.87785524304 0.0
1.94967747948 3.87849609822 0.0
1.73218750075 3.8916046151 0.0
0.468661874066 3.89189322974 0.0
1.47574192429 3.89639134117 0.0
0.704258110321 3.8963912684 0.0
1.18331258449 3.8976320365 0.0
0.949999953744 3.89208018478 0.0
1.64795374468 3.91749779939 0.0
0.548928463645 3.91905583847 0.0
1.38619509199 3.91928594438 0.0
0.788926872841 3.91906062101 0.0
1.27071160784 3.91777932845 0.0
1.02999997296 3.91685174433 0.0
1.81733541416 3.69950870754 0.0
1.86999999106 3.91823503401 0.0
0.071252620538 3.93011431841 0.0
2.12874737946 3.93011431841 0.0
2.07400690796 3.74293885365 0.0
0.125993092043 3.74293885365 0.0
0.32995676804 3.92118147353 0.0
2.00999996712 3.92542383197 0.0
0.190000032884 3.92542383197 0.0
1.56698738743 3.72218882919 0.0
1.33000000474 3.72531695685 0.0
0.848014510843 3.71986098938 0.0
1.09024665585 3.72285801424 0.0
0.610276609989 3.72290563624 0.0
1.54999998543 3.92414142844 0.0
0.629999973146 3.92414137652 0.0
0.869999974031 3.92414141814 0.0
1.11000003579 3.92414141267 0.0
1.79030638642 3.92649353654 0.0
0.370434802927 3.72513294336 0.0
0.410903135411 3.92892991244 0.0
1.33000002597 3.93737911571 0.0
0.129927648482 3.94112154503 0.0
2.07007235152 3.94112154503 0.0
1.93000000928 3.93875927586 0.0
0.26999999072 3.93875927586 0.0
1.40966706061 3.83880068991 0.0
0.770332962441 3.83880062149 0.0
1.24904900022 3.84293377683 0.0
1.01033287484 3.83880060723 0.0
0.530342681434 3.83880307444 0.0
0.189895273961 3.63486992823 0.0
2.00989835291 3.62845703161 0.0
0.998888153878 3.61665036233 0.0
1.47894673873 3.61675180774 0.0
0.51733910646 3.62937665489 0.0
0.705112628302 3.618743723 0.0
1.66672137035 3.63168728155 0.0
1.18508242495 3.61871739348 0.0
1.71000003443 3.94408608591 0.0
0.489999965568 3.94463856597 0.0
1.44983363802 3.94422347836 0.0
0.729999997105 3.94465012565 0.0
1.21016639734 3.94422345842 0.0
0.928621800545 3.94440037102 0.0
2.00626203014 3.81543543551 0.0
0.193627962274 3.81528928332 0.0
1.66628164144 3.83559795895 0.0
1.75661718781 3.81065958113 0.0
1.61143779865 3.94859227761 0.0
0.991673865748 3.95161238438 0.0
0.0604617941233 3.86281264864 0.0
2.13953820588 3.86281264865 0.0
0.300965570716 3.8114148258 0.0
0.2970894797 3.66361086085 0.0
0.398842167194 3.60449226805 0.0
1.51000004877 3.95218393067 0.0
1.90135619383 3.81213273629 0.0
0.669405272842 3.95495208979 0.0
1.07142780558 3.94866325309 0.0
0.592085094025 3.94901139323 0.0
0.831051660929 3.94633985879 0.0
1.14940528892 3.9549521224 0.0
0.44409344258 3.82719938178 0.0
1.49646539728 3.82376850413 0.0
0.683434082651 3.82631713605 0.0
0.92337834777 3.8234861632 0.0
1.16343437877 3.82631615351 0.0
1.90749084149 3.65350700271 0.0
1.8278758005 3.95083911942 0.0
0.37243073327 3.95235211027 0.0
1.29345662549 3.60569899261 0.0
0.813407949226 3.60572380122 0.0
1.29317153636 3.96216077293 0.0
1.367704599 3.96055764734 0.0
1.97071235041 3.96038324024 0.0
0.22928764959 3.96038324024 0.0
2.10610581798 3.66047411138 0.0
0.0938941820177 3.66047411138 0.0
1.67000000105 3.95862953468 0.0
1.74869816704 3.96079301687 0.0
0.531976761939 3.96138655466 0.0
0.451361042387 3.96112774725 0.0
0.771976832233 3.96138887156 0.0
1.88843481911 3.95881554986 0.0
1.61277513709 3.78538823015 0.0
2.13311214501 3.79435403671 0.0
0.0668878549946 3.79435403671 0.0
1.76678797151 3.60286552601 0.0
0.311702446283 3.9611157379 0.0
1.02877762737 3.96159282031 0.0
1.40830122607 3.96143175203 0.0
1.25214210333 3.957355862 0.0
1.59476493393 3.9048774062 0.0
1.56950979124 3.96148017208 0.0
0.890017020275 3.96125792969 0.0
2.03089110475 3.96040268709 0.0
0.169108895255 3.96040268709 0.0
0.939722125942 3.68539157065 0.0
1.41686981874 3.69192854313 0.0
0.0426348006718 3.96101756902 0.0
2.15736519933 3.96101756902 0.0
1.36077308019 3.79177204211 0.0
0.817982383499 3.78962669257 0.0
1.05834720932 3.78780184893 0.0
0.578349529346 3.78781530011 0.0
1.77992711518 3.87652731382 0.0
0.417982153133 3.87594990465 0.0
1.84363633012 3.77741329286 0.0
1.52244994479 3.87704541475 0.0
0.657426528912 3.87734838249 0.0
1.13742651778 3.87734834025 0.0
0.898116026439 3.8800466833 0.0
1.56984259435 3.64465823131 0.0
1.08983016076 3.6446495206 0.0
0.609942357805 3.64483976081 0.0
1.29451769374 3.79627773068 0.0
0.0893439668432 3.96574839433 0.0
2.11065603316 3.96574839433 0.0
2.01422398896 3.86980625824 0.0
0.185776011038 3.86980625824 0.0
0.305957237756 3.87340573745 0.0
1.72977480551 3.68665973332 0.0
1.25418096296 3.69351129461 0.0
0.629999973146 3.96272981435 0.0
1.11000003579 3.96272983221 0.0
0.772975283819 3.69297597031 0.0
1.89089074715 3.86951346173 0.0
0.445448577516 3.69456159386 0.0
1.82621986864 3.89678318705 0.0
2.07135424223 3.81165410377 0.0
0.128645757768 3.81165410377 0.0
0.373320289473 3.89968791662 0.0
1.79000004014 3.96541718891 0.0
0.383302070088 3.78976392323 0.0
0.409457623385 3.96502881851 0.0
1.55531527123 3.78787141386 0.0
1.34861332978 3.89383287415 0.0
0.593245985735 3.89483466551 0.0
0.833245353375 3.89479604398 0.0
1.0732444554 3.8948349405 0.0
0.911896623122 3.59194725763 0.0
0.187580554011 3.70699710313 0.0
2.01241944599 3.70699710313 0.0
1.39201907571 3.59233063354 0.0
2.09635520798 3.90516200201 0.0
0.103644792024 3.90516200201 0.0
1.89086147526 3.72621461413 0.0
1.02102684616 3.70044819701 0.0
1.49813234221 3.70194667869 0.0
0.53965669049 3.70593418829 0.0
1.63719578665 3.69772473547 0.0
0.685447658936 3.70127585046 0.0
1.16541741817 3.70128744764 0.0
0.901649266036 3.76287226775 0.0
0.992351690321 3.90662993531 0.0
1.69131894868 3.90657323657 0.0
1.9699561555 3.91599371502 0.0
0.230043844497 3.91599371502 0.0
1.61980840676 3.85005402918 0.0
2.04685187594 3.90639759008 0.0
0.153148124058 3.90639759008 0.0
0.512139828486 3.90538520837 0.0
1.43057458921 3.90702644399 0.0
0.749149996349 3.90689574876 0.0
[...]
POINT_DATA 1163
VECTORS Displacement float
0.0 0.0 0
0.0 0.0 0
0.000909400928853 -0.000241944001114 0
-0.000647581366467 0.00071196481854 0
0.0 0.0 0
0.0 0.0 0
0.0 0.0 0
0.0 0.0 0
0.0 0.0 0
0.0 0.0 0
0.0 0.0 0
0.0 0.0 0
0.0 0.0 0
0.0 0.0 0
0.0 0.0 0
0.0 0.0 0
0.0 0.0 0
0.0 0.0 0
0.0 0.0 0
0.0 0.0 0
0.0 0.0 0
0.0 0.0 0
0.0 0.0 0
0.0 0.0 0
0.0 0.0 0
0.0 0.0 0
0.0 0.0 0
0.0 0.0 0
0.0 0.0 0
0.0 0.0 0
0.0 0.0 0
0.0 0.0 0
0.0 0.0 0
0.0 0.0 0
0.0 0.0 0
0.00014583439835 -0.000134749398816 0
0.000271484907441 -0.000195876267411 0
0.000385529217377 -0.000226861880409 0
0.000481052756013 -0.000241516538002 0
0.000560765135248 -0.000246562728617 0
0.000628364802996 -0.000247079693276 0
0.000685094438905 -0.000246266149232 0
0.000734639905463 -0.000244805858224 0
0.000777632712047 -0.000243434824782 0
0.000815807453034 -0.000242584798535 0
0.000850047131899 -0.00024213871159 0
0.000881105920633 -0.000241952909726 0
0.000909393025891 -0.000213916979058 0
0.00090927508863 -0.000185772746745 0
0.000908984678428 -0.000157659744373 0
0.00090846912106 -0.000129690239256 0
0.000907785618324 -0.000102041701714 0
0.000907011500241 -7.47903180512e-05 0
0.000906093727481 -4.80056650716e-05 0
0.000905208634578 -2.17239620426e-05 0
0.000904233959308 4.02984649237e-06 0
0.000903328703509 2.92935814407e-05 0
0.000902277433065 5.40793650787e-05 0
0.00090115372622 7.82880629809e-05 0
0.00089996995051 0.000101969838993 0
0.000898478523782 0.000125237624363 0
0.000896709563867 0.000147947906531 0
0.000894254243853 0.000170245086989 0
0.000891290679947 0.000191905492003 0
0.000887154302339 0.000213139199046 0
0.000882029060597 0.000233430334536 0
0.000875103033571 0.000252855272757 0
0.000866367890431 0.000271140459954 0
0.000856032601368 0.000287540035981 0
0.000842781286698 0.000303440632754 0
0.000826717016704 0.000316233464505 0
0.000806696337306 0.000327656719837 0
0.000783213972228 0.000335162064663 0
0.000754005783278 0.000340009261875 0
0.000720907293849 0.000339449027932 0
0.000681105200517 0.000333950580996 0
0.000636267373862 0.000321875512508 0
0.000583975024892 0.000301208639645 0
0.000522514814313 0.000275153018633 0
0.000453809899309 0.000237083962198 0
0.000374477639527 0.000187256155862 0
0.000285670970388 0.000122857320078 0
0.000184533405201 4.36633392687e-05 0
7.01918591602e-05 -5.62987832454e-05 0
-5.80267506239e-05 -0.000176335634431 0
-0.000195712099593 -0.000323079786717 0
-0.000352083792135 -0.000495629373001 0
-0.000519631563708 -0.000701061870352 0
-0.000704066201545 -0.000940703641173 0
-0.000904570755102 -0.00122441793768 0
-0.00113295427996 -0.00155016108967 0
-0.00136937932159 -0.00193051519643 0
-0.00162727310417 -0.00237286659476 0
-0.0018977358787 -0.00288701740129 0
-0.00219388680684 -0.00346602104148 0
-0.00249822039668 -0.00413741673521 0
-0.00283585604773 -0.00489917175511 0
-0.00318458857643 -0.00577514625311 0
-0.00355173209278 -0.00678556356258 0
-0.0039372879371 -0.00794360639591 0
-0.00433507442886 -0.00927358298529 0
-0.00471378725532 -0.0108002944421 0
-0.00513879763202 -0.0125888280953 0
-0.00554118995141 -0.0146985051815 0
-0.0058321354211 -0.0171960338522 0
-0.0061152251644 -0.0202093980247 0
-0.00570985409093 -0.0251976770564 0
-0.00517943164516 -0.0296361301244 0
-0.0045218743343 -0.0335729029937 0
-0.00385034211563 -0.0370270299953 0
-0.00317937748389 -0.0399989687058 0
-0.00259881213752 -0.0425210311373 0
-0.00203255556271 -0.0445821889504 0
-0.00154244885288 -0.0461877383388 0
-0.00106850559591 -0.0473339108986 0
-0.000648663703825 -0.0480188868716 0
-0.000296494551685 -0.0482382521629 0
0.000111032954178 -0.0480049917679 0
0.000556727029974 -0.0473053343611 0
0.00101125365402 -0.0461468349978 0
0.00153844195726 -0.0445364774191 0
0.00208538395268 -0.0424588033239 0
0.00268283375903 -0.0399292090309 0
0.00333800578002 -0.0369306585489 0
0.00401620608613 -0.0334746892478 0
0.00465443543066 -0.0295282987999 0
0.00531334332626 -0.0251009802607 0
0.00547574512939 -0.0200311355435 0
0.00524636888708 -0.0171627618715 0
0.00492675474107 -0.0147274161386 0
0.0045275139957 -0.0126313359807 0
0.00414341040091 -0.010859430744 0
0.00371035163386 -0.0093369443221 0
0.00332145859533 -0.00803541315322 0
0.002931560971 -0.0069069752371 0
0.002579343707 -0.00591672413074 0
0.00222348731023 -0.00505350741989 0
0.00187537277451 -0.00430666893463 0
0.00156527292935 -0.00365262135406 0
0.00127111313759 -0.00309076363341 0
0.000998701220633 -0.0025969791307 0
0.000743720878323 -0.00217357717147 0
0.000519499612876 -0.00180313335092 0
0.000308580554938 -0.00148767310754 0
0.000125800238048 -0.00121108844556 0
-4.0226442792e-05 -0.000974142168141 0
-0.000186472515456 -0.000771489475982 0
-0.000305300386659 -0.000589517075914 0
-0.000408315548343 -0.00043170501454 0
-0.00048936063177 -0.000283113333797 0
-0.000552902008677 -0.000149358392678 0
-0.000597569278802 -1.56027878045e-05 0
-0.000626576572596 0.000116148185164 0
-0.000642416899809 0.000253052824599 0
-0.000648429781133 0.000397937399233 0
-0.000648286535468 0.000551419842954 0
-0.000810804591649 0.000712668760463 0
-0.00099814205015 0.000711140197816 0
-0.00121662713849 0.000699446531417 0
-0.00146827678447 0.000669838675462 0
-0.00174410963384 0.000599877969779 0
-0.00201853406883 0.000483944597963 0
-0.00228386280656 0.000315232652782 0
-0.00246725678153 8.42291355239e-05 0
-0.00251824748511 -0.000183437671296 0
-0.00236855610455 -0.000470016853004 0
-0.00188882672989 -0.00066719295205 0
-0.00110993095081 -0.000637839878866 0
-0.0032814860332 -0.00115258825782 0
0.000578087784557 5.28887769518e-05 0
-0.00509877582924 -0.00760204101667 0
-0.00247295771974 -0.0198957538196 0
0.00421961924119 -0.0153845590213 0
0.00388322557453 -0.00387601962022 0
0.00178797966953 -0.000124251555076 0
0.000941029397726 0.000224972896814 0
-0.00189205814045 -0.000191041410382 0
0.000727462881153 -6.0304199138e-05 0
0.000781353638633 0.000202769877051 0
0.00106106328228 0.000298816909239 0
-0.00295179152084 -0.00366610815683 0
-0.00462555441164 -0.0190745972125 0
0.00177966605106 -0.00122065095651 0
0.00112465125581 -0.0290982880938 0
0.00382395862741 -0.010708776822 0
-0.00188554659907 -0.00119342220033 0
0.000760482762415 8.51290667715e-05 0
0.000841260543553 0.000310831450081 0
-0.00248857856028 -0.00827600705052 0
0.000890444315445 0.000105238639967 0
-0.00244930320972 -0.0316850513531 0
0.00133602341104 -0.00537844243185 0
0.00294251687305 -0.0262945875214 0
0.000821900646133 0.000362096440458 0
-0.0021569207082 -0.0153352650548 0
0.000586565288676 -0.000503458765905 0
-0.00044844475518 -0.0380623309217 0
0.000480631228133 -0.00240734291922 0
0.00205711872351 -0.0178435878701 0
0.000621892307705 0.000105304426533 0
0.000817137568665 0.000179878763698 0
-0.0012440602252 0.000176121935505 0
0.000812113508836 -0.000141544549693 0
0.000519417436742 -6.45815136175e-05 0
-0.00274674026071 -0.000285202608793 0
-0.00098883836989 -0.00263882400825 0
0.000809563618422 1.64773786598e-05 0
-0.00115848632387 -0.00058286482012 0
0.00131816159671 0.000104589626124 0
0.00285836177961 -0.0012200665197 0
0.00127654350333 -0.0163328446607 0
0.00472041507875 -0.00754470271905 0
-0.00462319984332 -0.0119475987663 0
0.000752210256467 0.000307361145197 0
-0.00245022486128 -0.0262202993748 0
0.000869540060039 -0.0365800111727 0
0.000668295642313 -0.00980082271386 0
0.000829982767165 0.000264991714433 0
-0.00425716821904 -0.00307583680497 0
-0.000687792097237 -0.00529877067904 0
0.000152079641464 -0.00123624673465 0
-0.0010702032777 -0.000173901902017 0
0.000827873926996 -6.10382138681e-05 0
0.000831111061277 0.000113465867917 0
-0.000730877705038 -0.00149829646182 0
0.00154165273725 -0.000332505638669 0
-0.00114302606584 -0.0284024475005 0
0.00235995307129 -0.00296487589098 0
0.00434267966585 -0.0169744777112 0
-0.00462517388364 -0.0120216173824 0
-0.00246490768669 -0.000500553009593 0
0.000295712791563 -1.11556307545e-05 0
0.00305209784966 -0.00581943181574 0
0.00137520691714 -0.000203616975338 0
-0.00390490043081 -0.00463764755784 0
-0.00196154045375 -0.00760747905057 0
0.000750923107864 4.66174946073e-05 0
0.00327070970938 -0.00247343009633 0
0.000816533637493 0.000333714404114 0
-3.68382528264e-05 -0.00989998349677 0
0.000443324039419 -3.60301351642e-05 0
-0.00082874567329 -0.0389118936167 0
-0.000474706428435 -0.00432288546713 0
0.000700391453024 -0.0334060537447 0
0.000658782538768 1.28153581182e-05 0
-0.00256076604161 -0.000624458770888 0
0.000946312523798 0.000313112029188 0
0.000834452049525 0.000243795518216 0
0.000736955576308 0.000356512108816 0
0.000245112902763 -0.0246774758125 0
-0.00190912449847 0.000163918348649 0
0.000715247487938 -0.000156143046504 0
-0.00312036757446 -0.00196049069872 0
-0.0034050513266 -0.0014108619767 0
-0.00317423748273 -0.00201905956199 0
0.000546048939822 0.000208871965351 0
0.000701998519586 0.000118950591794 0
-0.000607977913267 -0.0341058807692 0
-0.000538759204871 -0.0133027413452 0
-0.00085461582233 -0.0218158259585 0
-5.58216844116e-06 -0.0410409810438 0
-0.00116696196739 -0.00721162679568 0
-0.00405676915991 -0.00649081920352 0
0.00135291225706 0.000120616627601 0
-0.00367144022567 -0.0234539375654 0
0.00338986964889 -0.0228104483386 0
0.00350546523932 -0.00603541213688 0
0.000418912482844 3.72354306054e-05 0
0.000843229544893 0.000227981435559 0
0.000100777337054 -0.00388065422392 0
0.00238936123654 -0.00110872631925 0
0.000156667687279 -0.00717737018371 0
-0.000573429439592 -0.00195808738256 0
-8.12017841134e-05 -0.000751899361221 0
0.000854239843416 6.56514036104e-05 0
-0.000519691885861 -0.000995105555193 0
0.000346378225174 -8.29500969362e-05 0
-0.00239078648618 -0.000256485016705 0
0.000782538897443 0.000352963073619 0
0.000831118970466 0.000303475195826 0
0.000999361270527 -0.0137039644902 0
0.000931638543098 -0.00735913397787 0
-0.000302159988029 -0.0430125805708 0
0.000852578253649 0.000161820037591 0
0.00112560938388 0.000251043262213 0
0.000606610456607 -0.000143488771939 0
-0.00245592955923 -7.60155442773e-06 0
0.000438774838858 2.60058784187e-05 0
-1.85324825073e-05 -0.00228638250134 0
-0.00107785211028 -0.0187903386958 0
0.000114287327478 -0.000340296856589 0
-0.000716552316526 -0.00294854471425 0
0.000846898805942 0.000352603568522 0
0.000639300177181 0.000319979335668 0
-0.000205339768936 -0.0393268238313 0
0.000853764611421 -9.5911422001e-06 0
-0.000763510487878 -0.000447222781906 0
0.00322572561204 -0.0114181530119 0
0.00214851150326 -0.000438774978859 0
-0.000964208861277 0.000377458587483 0
0.00085497352092 -0.000181997398964 0
0.00225916165117 -0.000854290762434 0
0.000377061416577 -0.0233622128271 0
0.00479628550769 -0.0112878278065 0
-0.00517742834049 -0.0136613755465 0
0.000823050185221 0.000263167769424 0
-0.00260528594979 -0.0055224187457 0
0.000709667527747 0.0001505670059 0
0.000994318657197 0.000242337438224 0
-0.00366334063333 -0.0257712519901 0
0.00242799082121 -0.00776461927797 0
0.00228080314177 -0.0298504497183 0
0.00112729999525 -1.08970331387e-05 0
0.00391691695812 -0.00500775064959 0
-0.00366331400876 -0.00751992683059 0
0.00271288076402 -0.0018485385704 0
-0.000887238109317 6.72184729492e-05 0
0.000861179212083 -0.000116440934561 0
0.000735875068891 8.66519635685e-06 0
-0.00192401627784 -0.000543382108715 0
-0.00209893844156 -0.00208260790101 0
0.000755939397739 0.000117174698095 0
0.00352678028034 -0.00224616464999 0
2.65224355612e-05 -0.0289348619649 0
-0.00174570033171 -0.00988356288524 0
-0.000911152217795 -0.0142296278952 0
0.000768936387232 0.000148371785028 0
-0.0047039399131 -0.00460612282828 0
0.000811401901443 0.000223669100014 0
0.000639488635254 -6.29100521685e-05 0
-0.0024338360971 -0.000227214675462 0
-0.0016414109453 -0.00384886316457 0
0.000846620012798 0.000265799405682 0
-0.00403095278955 -0.00388406439978 0
0.000845071087431 -0.00529572645807 0
0.00129327617767 0.000195953142498 0
0.00097205307419 -0.000945110877382 0
-0.00359920806951 -0.0199036543359 0
0.000563938832505 -0.0347538868726 0
0.00249147345066 -0.0127212806098 0
0.00169251061825 -0.00560684174524 0
-0.00295623626627 -0.000582604967602 0
0.000466037501703 -6.83997633771e-06 0
0.00158665662476 -0.000454828052228 0
0.000777860567961 -9.64029948125e-05 0
-0.00149115762631 -2.12303237798e-05 0
0.000584211806628 8.33911957712e-05 0
0.0044220921422 -0.00946876916357 0
0.00164141089683 -7.70925778937e-05 0
-0.00494276932911 -0.00820106853053 0
0.00102988638828 0.000124170514118 0
-0.00317696108939 -0.013265039271 0
0.00426175696493 -0.00439266426826 0
0.00289203702126 -0.0186668530672 0
0.00269627069963 -0.0222434214143 0
0.000840483506865 0.000341047192934 0
0.000801571245782 6.50610269231e-05 0
-0.00124055016429 -0.000962114832398 0
0.000983544285063 0.000329659490162 0
0.000781990789778 -3.08434188506e-05 0
-0.0014511186936 -0.000313163576384 0
-0.0023776699162 -0.0115808911684 0
0.000784103788387 -0.000135039803045 0
-0.0013343853727 -0.0355411840608 0
0.000722257054501 -0.00363329939039 0
0.000482534976877 -0.000138543635807 0
-0.00262468412467 -0.00016136396389 0
-0.000817242427136 -0.031369013855 0
-0.00153725074296 0.000340196319568 0
0.000770146732453 -0.000184551144354 0
0.000360010960771 8.14864968824e-05 0
-1.15049573811e-05 -0.0390948701091 0
-0.00157546527535 -0.00553745406519 0
-0.0026269146266 -0.00114424025474 0
-0.00372707522438 -0.00207731131408 0
0.00156345328556 -0.00203912051283 0
0.000695143070151 7.09178051737e-05 0
-0.000393150806252 -0.00128054307913 0
0.000781400966833 0.000180246191148 0
0.00451845752655 -0.0076765146842 0
-0.00455188441873 -0.0168698243107 0
0.000630440231614 0.000127723354899 0
-0.0016245411229 -0.0347373286123 0
6.416309974e-05 -0.00568049584915 0
0.000740872251699 0.00035510289898 0
0.0020993737591 -0.0229790406602 0
0.000280628928446 1.71781048002e-05 0
0.000859295572641 0.000114101116602 0
-0.000217439809542 -0.00154299067651 0
0.00122033130695 -0.0170744061823 0
-0.000251719840151 -0.0440852344121 0
0.000564538622253 0.000275005510352 0
-0.000315815474248 -0.0419466277067 0
0.000860148714542 0.000190377850974 0
0.00086069288743 -6.0749396306e-05 0
-0.000816051143545 -0.000187716039567 0
0.000376881167965 -0.00290656420761 0
0.000874866319886 0.000292943878494 0
0.000863186950121 3.19687813704e-05 0
-0.000544317890076 -0.000729815576972 0
-0.00405509342345 -0.00877907150614 0
0.00132774955452 -1.29861953754e-05 0
-0.00256934454836 -0.0274870559235 0
0.00283481491659 -0.00460988107607 0
0.00392538508853 -0.0215922623712 0
0.000227003368408 1.65217205853e-06 0
-0.00192063469482 -0.000613498816361 0
0.000830424853772 0.00030080865238 0
0.00160452423328 -0.027604271032 0
-0.00126389548087 -0.00717989032549 0
0.000744865664569 -0.00163230934435 0
-0.000291570597104 -0.0323563211552 0
0.00364581428949 -0.0156661752674 0
-0.00408602181743 -0.0152273392121 0
-0.00144704987693 -0.000233816326789 0
0.00016297189021 -2.95329557367e-05 0
-0.00226596449606 -0.00104717187069 0
0.000801457740724 0.000141389041811 0
-0.00139734365406 -0.00191879532797 0
0.00155856894861 5.0660279456e-05 0
0.00125730675213 -0.000546947571921 0
0.00178002276197 -0.0323510563471 0
-0.00472072727172 -0.00504516383779 0
0.000756909518203 0.000244213655406 0
-0.00248104790964 -0.0299985183146 0
0.000765952552158 -0.00743459602143 0
0.000678395015738 -0.000101231181989 0
-0.00217409928792 -6.56186707701e-05 0
0.000810030344951 0.000330783158716 0
0.00074133893444 0.000338684340417 0
0.000579006948102 -1.67039756975e-05 0
-0.00280576792688 -0.000480806463586 0
0.00160493108198 -0.00997021694424 0
0.00027049365786 -3.34827602616e-05 0
-0.000136563432104 -0.0411982702347 0
-0.000800080453714 -0.0352054385531 0
-0.00136307460622 -0.00450220633457 0
0.00336401115964 -0.0023027867304 0
0.000893240969152 0.000342389913298 0
0.000650138457544 -0.000184423982568 0
-0.00224116214303 0.000166428726652 0
0.00232405931458 -0.00059303638436 0
0.000485186895533 -3.59218661325e-05 0
0.000777459817263 0.000201994186919 0
0.00215367106587 -0.00176742680577 0
0.00262962555717 -0.000988704583757 0
-0.00168028637122 -0.00339569272087 0
0.00127083201961 -0.0113191926513 0
-0.00320966411227 -0.00103273519567 0
-0.000674772177293 -0.0188447195621 0
-0.0033786309423 -0.00285088107069 0
0.000927749140152 0.000322309661072 0
-0.00258562924951 -0.00210371708377 0
-0.00146762499252 -0.000294860174292 0
0.000184577105472 -8.74759944094e-05 0
0.000866023490824 -0.000151154816652 0
-0.000882690089892 0.000226636843996 0
0.000791407144948 0.000183485459606 0
0.00214504158611 -0.00121483273647 0
-0.000720149532217 -0.00493818389289 0
-0.00125383563835 0.00044392702055 0
0.000811198371705 -0.000198640169304 0
-0.00256955638447 -0.0031384220694 0
0.000452658646538 3.27644770774e-05 0
-0.00391286241211 -0.0023738088262 0
0.00246112373909 -0.00331013900405 0
0.000871001854654 -0.000119299227502 0
-0.00519912184407 -0.0103067552971 0
-0.00204514565763 -0.00270508408385 0
0.00188586561369 -0.000276377276378 0
0.00468932503339 -0.0145293353958 0
0.00068289207428 0.000343867206503 0
-0.00198968026752 -0.0261491325396 0
0.000504207117112 -0.000849495460644 0
0.0006917869988 -2.32083100937e-05 0
-0.00221830078081 -0.000377682757571 0
0.000380788306711 6.18982394199e-06 0
0.00323692985601 -0.00283306666061 0
-0.00294579409976 -0.0159417093386 0
-0.00147741309023 -0.0223536119564 0
-9.61197857508e-07 -0.0286563646061 0
0.00420998900287 -0.0141588368243 0
-0.00471277503205 -0.0150313297016 0
0.0017170893525 -0.000684061931848 0
-0.000186124331204 -0.00052886961851 0
-0.00117431472227 -0.00254897664179 0
0.00046434332565 5.27000686176e-05 0
0.000819027426614 -0.000101027111841 0
-0.00117297988089 5.31260290124e-06 0
0.00108381073132 -0.0252693322923 0
0.000726750083832 -0.0336222207776 0
-0.00232594659337 -0.0118254039323 0
-0.00229660314364 -0.00818769503458 0
-0.00272666430337 -0.000327552204584 0
0.00043390202588 -5.38281000756e-05 0
0.000923134621803 0.000274843352772 0
0.000776252283742 -0.000139620529861 0
-0.00150045701471 0.000151924367767 0
0.000742228255867 0.000153108854485 0
0.000401880238945 0.000180701284885 0
-0.000562388839733 -0.0456191988551 0
-0.0037171976143 -0.0193762833981 0
0.00417835258349 -0.00563091859249 0
0.000856931498899 0.000242470878034 0
0.00173630880017 -0.00277530559152 0
0.000969448792599 -0.00443034536556 0
-0.000870071200171 0.00049645557325 0
0.000870925139076 -0.000204203008283 0
0.00136943673757 -0.0330950419552 0
0.00229252949744 -0.00993179563737 0
-0.00371046856294 -0.023487906098 0
-0.00214290141311 -0.000874307869146 0
0.000656075843042 0.000111729032701 0
0.000737508836413 4.69508207911e-05 0
0.000818413404906 -2.78858160277e-05 0
-0.00111634753955 -0.000330373313166 0
0.000826450625945 0.000209388010257 0
0.00084609419468 0.000282529715221 0
0.00160697645926 -0.00625565391339 0
0.00100970340288 0.000268965251833 0
0.00117618280376 0.000231967352887 0
-0.00434967252129 -0.0214954251049 0
0.00250067979502 -0.0257214350203 0
0.00369241338689 -0.00817548252299 0
-0.00347718756766 -0.0049481813345 0
0.00384558404684 -0.0204148111117 0
-0.00476683812485 -0.00806950015581 0
0.00118603665205 -0.000149279163794 0
-0.00373914634639 -0.0109937567162 0
-0.00166067722872 -0.0313524068043 0
0.000777652297128 3.51173932006e-05 0
0.00160965212314 -5.84537157661e-05 0
-0.00153774303903 -0.00069607937918 0
-0.00275863105333 -0.0231386214576 0
0.00412960660076 -0.0186216009589 0
0.00351509534504 -0.0043594042394 0
0.000810778305693 0.000362212076797 0
0.000884959812148 0.000357322001197 0
-0.00219775679613 -0.0186710004582 0
-4.00275682439e-06 -0.0386749406967 0
0.00141312016955 -0.0144301853793 0
-0.00048081456771 -0.00102038802302 0
-0.000808500222585 -0.00164957514525 0
0.00112907723714 0.00013918732831 0
-0.00325198177043 -0.0274282294844 0
0.00250435187975 -0.00595464689997 0
0.00320048236437 -0.0256923643645 0
0.000876046123418 9.17843447311e-05 0
-9.43787379944e-05 -0.00129920952464 0
-0.00070787365004 -0.00332400187896 0
0.00104678698381 0.000206254945021 0
0.000462942279892 -0.00020203570089 0
-0.000106356661658 -0.00338874089096 0