# vtk DataFile Version 2.0
Generated with Solid Solver
ASCII
DATASET UNSTRUCTURED_GRID
POINTS 1163 float 
0.0 3.5 0.0
2.2 3.5 0.0
2.2 4.0 0.0
0.0 4.0 0.0
0.0687499999999 3.5 0.0
0.1375 3.5 0.0
0.20625 3.5 0.0
0.275 3.5 0.0
0.343749999999 3.5 0.0
0.412499999999 3.5 0.0
0.481249999999 3.5 0.0
0.549999999999 3.5 0.0
0.618749999998 3.5 0.0
0.687499999998 3.5 0.0
0.756249999998 3.5 0.0
0.824999999998 3.5 0.0
0.893749999998 3.5 0.0
0.962499999997 3.5 0.0
1.03125 3.5 0.0
1.1 3.5 0.0
1.16875 3.5 0.0
1.2375 3.5 0.0
1.30625 3.5 0.0
1.375 3.5 0.0
1.44375 3.5 0.0
1.5125 3.5 0.0
1.58125 3.5 0.0
1.65 3.5 0.0
1.71875 3.5 0.0
1.7875 3.5 0.0
1.85625 3.5 0.0
1.925 3.5 0.0
1.99375 3.5 0.0
2.0625 3.5 0.0
2.13125 3.5 0.0
2.2 3.56430812579 0.0
2.2 3.6227083524 0.0
2.2 3.67574343203 0.0
2.2 3.72390623714 0.0
2.2 3.76764438299 0.0
2.2 3.80736436348 0.0
2.2 3.84343531161 0.0
2.2 3.87619247056 0.0
2.2 3.90594026646 0.0
2.2 3.93295517223 0.0
2.2 3.9574882542 0.0
2.2 3.97976750927 0.0
2.18000003888 4.0 0.0
2.15999995974 4.0 0.0
2.13999995594 4.0 0.0
2.12000003893 4.0 0.0
2.0999999813 4.0 0.0
2.07999993507 4.0 0.0
2.06000001965 4.0 0.0
2.04000002354 4.0 0.0
2.01999993997 4.0 0.0
1.99999999426 4.0 0.0
1.98000004623 4.0 0.0
1.95999996625 4.0 0.0
1.93999996787 4.0 0.0
1.92000005069 4.0 0.0
1.90000001292 4.0 0.0
1.87999994967 4.0 0.0
1.86000003245 4.0 0.0
1.84000003166 4.0 0.0
1.81999995194 4.0 0.0
1.80000002065 4.0 0.0
1.78000005962 4.0 0.0
1.75999997703 4.0 0.0
1.73999998149 4.0 0.0
1.72000006236 4.0 0.0
1.70000000651 4.0 0.0
1.67999995967 4.0 0.0
1.66000004242 4.0 0.0
1.64000004304 4.0 0.0
1.61999996152 4.0 0.0
1.6000000096 4.0 0.0
1.58000006667 4.0 0.0
1.55999998704 4.0 0.0
1.53999998381 4.0 0.0
1.52000006764 4.0 0.0
1.5000000299 4.0 0.0
1.47999996242 4.0 0.0
1.46000004337 4.0 0.0
1.4400000454 4.0 0.0
1.41999996386 4.0 0.0
1.40000002834 4.0 0.0
1.38000006734 4.0 0.0
1.35999998576 4.0 0.0
1.33999998537 4.0 0.0
1.32000006658 4.0 0.0
1.30000001585 4.0 0.0
1.27999996279 4.0 0.0
1.26000004759 4.0 0.0
1.24000004493 4.0 0.0
1.2199999616 4.0 0.0
1.20000000906 4.0 0.0
1.18000006792 4.0 0.0
1.15999998616 4.0 0.0
1.13999999119 4.0 0.0
1.12000007157 4.0 0.0
1.1 4.0 0.0
1.07999992843 4.0 0.0
1.06000000881 4.0 0.0
1.04000001384 4.0 0.0
1.01999993209 4.0 0.0
0.999999990948 4.0 0.0
0.98000003841 4.0 0.0
0.959999955072 4.0 0.0
0.939999952416 4.0 0.0
0.920000037214 4.0 0.0
0.899999984154 4.0 0.0
0.879999933427 4.0 0.0
0.860000014636 4.0 0.0
0.840000014246 4.0 0.0
0.819999932662 4.0 0.0
0.79999997166 4.0 0.0
0.780000036145 4.0 0.0
0.759999954604 4.0 0.0
0.73999995663 4.0 0.0
0.72000003758 4.0 0.0
0.699999970103 4.0 0.0
0.679999932361 4.0 0.0
0.660000016189 4.0 0.0
0.640000012962 4.0 0.0
0.61999993333 4.0 0.0
0.599999990406 4.0 0.0
0.58000003848 4.0 0.0
0.559999956964 4.0 0.0
0.539999957581 4.0 0.0
0.520000040329 4.0 0.0
0.499999993489 4.0 0.0
0.479999937647 4.0 0.0
0.460000018512 4.0 0.0
0.440000022972 4.0 0.0
0.419999940378 4.0 0.0
0.399999979352 4.0 0.0
0.380000048063 4.0 0.0
0.359999968347 4.0 0.0
0.339999967553 4.0 0.0
0.320000050328 4.0 0.0
0.299999987077 4.0 0.0
0.279999949312 4.0 0.0
0.260000032129 4.0 0.0
0.240000033752 4.0 0.0
0.219999953776 4.0 0.0
0.200000005737 4.0 0.0
0.180000060031 4.0 0.0
0.159999976465 4.0 0.0
0.139999980354 4.0 0.0
0.120000064926 4.0 0.0
0.100000018697 4.0 0.0
0.0799999610675 4.0 0.0
0.0600000440571 4.0 0.0
0.0400000402596 4.0 0.0
0.0199999611169 4.0 0.0
0.0 3.97976750927 0.0
0.0 3.9574882542 0.0
0.0 3.93295517223 0.0
0.0 3.90594026646 0.0
0.0 3.87619247056 0.0
0.0 3.84343531161 0.0
0.0 3.80736436348 0.0
0.0 3.76764438299 0.0
0.0 3.72390623714 0.0
0.0 3.67574343203 0.0
0.0 3.6227083524 0.0
0.0 3.56430812579 0.0
0.249757963562 3.75212589829 0.0
1.94999996706 3.74954522137 0.0
0.488710285893 3.75947702441 0.0
0.726520490699 3.7655965719 0.0
0.967283134849 3.7597072979 0.0
1.20619032017 3.75831098673 0.0
1.45842774915 3.76733088374 0.0
1.69012076678 3.7622332834 0.0
0.130754044069 3.86878249167 0.0
2.06924595593 3.86878249167 0.0
1.8299999918 3.84622455633 0.0
1.56816462369 3.85034872999 0.0
0.369913859351 3.84868157925 0.0
0.608733620231 3.84706187144 0.0
1.33069778866 3.84790908234 0.0
0.84323446252 3.84762979148 0.0
1.08873170817 3.84705870913 0.0
0.250539365135 3.87785524304 0.0
1.94967747948 3.87849609822 0.0
1.73218750075 3.8916046151 0.0
0.468661874066 3.89189322974 0.0
1.47574192429 3.89639134117 0.0
0.704258110321 3.8963912684 0.0
1.18331258449 3.8976320365 0.0
0.949999953744 3.89208018478 0.0
1.64795374468 3.91749779939 0.0
0.548928463645 3.91905583847 0.0
1.38619509199 3.91928594438 0.0
0.788926872841 3.91906062101 0.0
1.27071160784 3.91777932845 0.0
1.02999997296 3.91685174433 0.0
1.81733541416 3.69950870754 0.0
1.86999999106 3.91823503401 0.0
0.071252620538 3.93011431841 0.0
2.12874737946 3.93011431841 0.0
2.07400690796 3.74293885365 0.0
0.125993092043 3.74293885365 0.0
0.32995676804 3.92118147353 0.0
2.00999996712 3.92542383197 0.0
0.190000032884 3.92542383197 0.0
1.56698738743 3.72218882919 0.0
1.33000000474 3.72531695685 0.0
0.848014510843 3.71986098938 0.0
1.09024665585 3.72285801424 0.0
0.610276609989 3.72290563624 0.0
1.54999998543 3.92414142844 0.0
0.629999973146 3.92414137652 0.0
0.869999974031 3.92414141814 0.0
1.11000003579 3.92414141267 0.0
1.79030638642 3.92649353654 0.0
0.370434802927 3.72513294336 0.0
0.410903135411 3.92892991244 0.0
1.33000002597 3.93737911571 0.0
0.129927648482 3.94112154503 0.0
2.07007235152 3.94112154503 0.0
1.93000000928 3.93875927586 0.0
0.26999999072 3.93875927586 0.0
1.40966706061 3.83880068991 0.0
0.770332962441 3.83880062149 0.0
1.24904900022 3.84293377683 0.0
1.01033287484 3.83880060723 0.0
0.530342681434 3.83880307444 0.0
0.189895273961 3.63486992823 0.0
2.00989835291 3.62845703161 0.0
0.998888153878 3.61665036233 0.0
1.47894673873 3.61675180774 0.0
0.51733910646 3.62937665489 0.0
0.705112628302 3.618743723 0.0
1.66672137035 3.63168728155 0.0
1.18508242495 3.61871739348 0.0
1.71000003443 3.94408608591 0.0
0.489999965568 3.94463856597 0.0
1.44983363802 3.94422347836 0.0
0.729999997105 3.94465012565 0.0
1.21016639734 3.94422345842 0.0
0.928621800545 3.94440037102 0.0
2.00626203014 3.81543543551 0.0
0.193627962274 3.81528928332 0.0
1.66628164144 3.83559795895 0.0
1.75661718781 3.81065958113 0.0
1.61143779865 3.94859227761 0.0
0.991673865748 3.95161238438 0.0
0.0604617941233 3.86281264864 0.0
2.13953820588 3.86281264865 0.0
0.300965570716 3.8114148258 0.0
0.2970894797 3.66361086085 0.0
0.398842167194 3.60449226805 0.0
1.51000004877 3.95218393067 0.0
1.90135619383 3.81213273629 0.0
0.669405272842 3.95495208979 0.0
1.07142780558 3.94866325309 0.0
0.592085094025 3.94901139323 0.0
0.831051660929 3.94633985879 0.0
1.14940528892 3.9549521224 0.0
0.44409344258 3.82719938178 0.0
1.49646539728 3.82376850413 0.0
0.683434082651 3.82631713605 0.0
0.92337834777 3.8234861632 0.0
1.16343437877 3.82631615351 0.0
1.90749084149 3.65350700271 0.0
1.8278758005 3.95083911942 0.0
0.37243073327 3.95235211027 0.0
1.29345662549 3.60569899261 0.0
0.813407949226 3.60572380122 0.0
1.29317153636 3.96216077293 0.0
1.367704599 3.96055764734 0.0
1.97071235041 3.96038324024 0.0
0.22928764959 3.96038324024 0.0
2.10610581798 3.66047411138 0.0
0.0938941820177 3.66047411138 0.0
1.67000000105 3.95862953468 0.0
1.74869816704 3.96079301687 0.0
0.531976761939 3.96138655466 0.0
0.451361042387 3.96112774725 0.0
0.771976832233 3.96138887156 0.0
1.88843481911 3.95881554986 0.0
1.61277513709 3.78538823015 0.0
2.13311214501 3.79435403671 0.0
0.0668878549946 3.79435403671 0.0
1.76678797151 3.60286552601 0.0
0.311702446283 3.9611157379 0.0
1.02877762737 3.96159282031 0.0
1.40830122607 3.96143175203 0.0
1.25214210333 3.957355862 0.0
1.59476493393 3.9048774062 0.0
1.56950979124 3.96148017208 0.0
0.890017020275 3.96125792969 0.0
2.03089110475 3.96040268709 0.0
0.169108895255 3.96040268709 0.0
0.939722125942 3.68539157065 0.0
1.41686981874 3.69192854313 0.0
0.0426348006718 3.96101756902 0.0
2.15736519933 3.96101756902 0.0
1.36077308019 3.79177204211 0.0
0.817982383499 3.78962669257 0.0
1.05834720932 3.78780184893 0.0
0.578349529346 3.78781530011 0.0
1.77992711518 3.87652731382 0.0
0.417982153133 3.87594990465 0.0
1.84363633012 3.77741329286 0.0
1.52244994479 3.87704541475 0.0
0.657426528912 3.87734838249 0.0
1.13742651778 3.87734834025 0.0
0.898116026439 3.8800466833 0.0
1.56984259435 3.64465823131 0.0
1.08983016076 3.6446495206 0.0
0.609942357805 3.64483976081 0.0
1.29451769374 3.79627773068 0.0
0.0893439668432 3.96574839433 0.0
2.11065603316 3.96574839433 0.0
2.01422398896 3.86980625824 0.0
0.185776011038 3.86980625824 0.0
0.305957237756 3.87340573745 0.0
1.72977480551 3.68665973332 0.0
1.25418096296 3.69351129461 0.0
0.629999973146 3.96272981435 0.0
1.11000003579 3.96272983221 0.0
0.772975283819 3.69297597031 0.0
1.89089074715 3.86951346173 0.0
0.445448577516 3.69456159386 0.0
1.82621986864 3.89678318705 0.0
2.07135424223 3.81165410377 0.0
0.128645757768 3.81165410377 0.0
0.373320289473 3.89968791662 0.0
1.79000004014 3.96541718891 0.0
0.383302070088 3.78976392323 0.0
0.409457623385 3.96502881851 0.0
1.55531527123 3.78787141386 0.0
1.34861332978 3.89383287415 0.0
0.593245985735 3.89483466551 0.0
0.833245353375 3.89479604398 0.0
1.0732444554 3.8948349405 0.0
0.911896623122 3.59194725763 0.0
0.187580554011 3.70699710313 0.0
2.01241944599 3.70699710313 0.0
1.39201907571 3.59233063354 0.0
2.09635520798 3.90516200201 0.0
0.103644792024 3.90516200201 0.0
1.89086147526 3.72621461413 0.0
1.02102684616 3.70044819701 0.0
1.49813234221 3.70194667869 0.0
0.53965669049 3.70593418829 0.0
1.63719578665 3.69772473547 0.0
0.685447658936 3.70127585046 0.0
1.16541741817 3.70128744764 0.0
0.901649266036 3.76287226775 0.0
0.992351690321 3.90662993531 0.0
1.69131894868 3.90657323657 0.0
1.9699561555 3.91599371502 0.0
0.230043844497 3.91599371502 0.0
1.61980840676 3.85005402918 0.0
2.04685187594 3.90639759008 0.0
0.153148124058 3.90639759008 0.0
0.512139828486 3.90538520837 0.0
1.43057458921 3.90702644399 0.0
0.749149996349 3.90689574876 0.0
[...]
POINT_DATA 1163
VECTORS Displacement float
0.0 0.0 0
0.0 0.0 0
0.0107777316042 -0.00164637140975 0
-0.010419609169 -0.00174597609773 0
0.0 0.0 0
0.0 0.0 0
0.0 0.0 0
0.0 0.0 0
0.0 0.0 0
0.0 0.0 0
0.0 0.0 0
0.0 0.0 0
0.0 0.0 0
0.0 0.0 0
0.0 0.0 0
0.0 0.0 0
0.0 0.0 0
0.0 0.0 0
0.0 0.0 0
0.0 0.0 0
0.0 0.0 0
0.0 0.0 0
0.0 0.0 0
0.0 0.0 0
0.0 0.0 0
0.0 0.0 0
0.0 0.0 0
0.0 0.0 0
0.0 0.0 0
0.0 0.0 0
0.0 0.0 0
0.0 0.0 0
0.0 0.0 0
0.0 0.0 0
0.0 0.0 0
0.00321649911753 -0.00240700255897 0
0.00571688148064 -0.00312096845224 0
0.00765031676706 -0.00317777792128 0
0.00889985696151 -0.0029265262015 0
0.00968526567929 -0.00259801230991 0
0.0101468325599 -0.00227269167525 0
0.0103714775469 -0.00202213658652 0
0.0105051301306 -0.00183980595182 0
0.0105650504106 -0.00172407593826 0
0.0106075173137 -0.00167186988214 0
0.0106551781924 -0.00164990372275 0
0.010713712597 -0.00164548377714 0
0.0107786331546 -0.00158125623498 0
0.0107773944148 -0.00150472012782 0
0.0107653346865 -0.00141640820918 0
0.0107366016002 -0.001318588693 0
0.0106871709397 -0.00121749889438 0
0.0106145202138 -0.00112424700242 0
0.0105134467971 -0.00103710298359 0
0.010388324052 -0.000977473554844 0
0.0102313978976 -0.000938254937342 0
0.0100537581325 -0.000939864440852 0
0.00983696018994 -0.000977735960132 0
0.00959314705449 -0.00107234549584 0
0.0093279386608 -0.00122909565899 0
0.00902304115006 -0.00144666578354 0
0.00870067554254 -0.00174613925822 0
0.00833139941176 -0.00212440113335 0
0.00793752390379 -0.00260769314112 0
0.0075082132663 -0.00318867414908 0
0.00705171622179 -0.00390338337558 0
0.00653615562348 -0.00475349777823 0
0.00600421379116 -0.00576381753844 0
0.0054673795092 -0.00694911840409 0
0.00486543682632 -0.00831151093181 0
0.0042511234003 -0.00990740151181 0
0.0035713846595 -0.0117600398158 0
0.00292928530334 -0.0138927799214 0
0.00222560322509 -0.0163467260161 0
0.00150539672079 -0.0191948099663 0
0.000805151785596 -0.022464523195 0
0.000244225232199 -0.0262214098099 0
-0.000239130874773 -0.0306048146367 0
-0.00075792794839 -0.0357831936592 0
-0.000841553896898 -0.0419152758739 0
-0.000304656068267 -0.049604572662 0
0.00135166538352 -0.059446867577 0
0.00315882477827 -0.0685644409526 0
0.00484191067887 -0.0773057804063 0
0.0064126601275 -0.085423133545 0
0.00763915642837 -0.0931601300328 0
0.00868040083755 -0.100425137502 0
0.00943103738767 -0.107272243634 0
0.00995669329017 -0.113632648955 0
0.0101952079489 -0.119587704205 0
0.0102491736035 -0.125073535034 0
0.0100334329054 -0.130093111413 0
0.00957892641309 -0.134626586833 0
0.00892472419683 -0.138662088126 0
0.00810725932834 -0.142184561134 0
0.00711045034767 -0.145185960413 0
0.00596574098189 -0.147661225044 0
0.00470924526071 -0.149596754814 0
0.00334747604679 -0.150988041455 0
0.00186666129885 -0.151821852804 0
0.000249316069014 -0.152043601007 0
-0.00142179879658 -0.151829198775 0
-0.00297196595354 -0.151008779064 0
-0.00437415292983 -0.149625693016 0
-0.00565029894512 -0.147695054095 0
-0.00680825236202 -0.145226276674 0
-0.0078408373408 -0.142224000181 0
-0.00868250953661 -0.138702271269 0
-0.0093186563039 -0.134674044759 0
-0.00974632306412 -0.130152406141 0
-0.00994347888877 -0.125147176129 0
-0.00994795740722 -0.119656477092 0
-0.00965592121965 -0.11370322678 0
-0.00919946910256 -0.107342516616 0
-0.00842452539507 -0.100511803686 0
-0.00739507959452 -0.0932458059387 0
-0.00612105890862 -0.0855255673442 0
-0.00464045662764 -0.0773877847234 0
-0.00290675717435 -0.0686756171886 0
-0.00114173327265 -0.0595528047206 0
0.00066875606059 -0.0497999209946 0
0.00123166412356 -0.0420654989786 0
0.00110108565093 -0.0358621142563 0
0.000668924167033 -0.0306794524149 0
9.71123163266e-05 -0.0262561032016 0
-0.00047173019885 -0.022475849072 0
-0.00116422562994 -0.0191894155007 0
-0.00183395310402 -0.0163412797624 0
-0.00249723090209 -0.0138853438419 0
-0.0031268608572 -0.0117496116705 0
-0.00376599845321 -0.00987089386716 0
-0.00435543221031 -0.0082399552326 0
-0.00495913414288 -0.00683914573497 0
-0.0054984644634 -0.00563669784681 0
-0.00601780726776 -0.00462002618056 0
-0.00647997283265 -0.00373948113069 0
-0.00693419352738 -0.00300051231608 0
-0.00736710494951 -0.00238907440922 0
-0.00774800623923 -0.00188070979942 0
-0.00810521088875 -0.00147938227661 0
-0.00843044209765 -0.00115582709894 0
-0.00873327354284 -0.000914518320465 0
-0.00899777331239 -0.000735642731554 0
-0.00924643674986 -0.000622994986939 0
-0.00946199529684 -0.000558521317918 0
-0.0096592011562 -0.000543925155892 0
-0.00983417856149 -0.00057415483193 0
-0.00997744793429 -0.00063301247721 0
-0.01010401501 -0.000724490568788 0
-0.0102050468942 -0.000832314784151 0
-0.010286781251 -0.000962394044857 0
-0.0103456607857 -0.00109758515041 0
-0.0103858540537 -0.00123932351668 0
-0.0104093219188 -0.00137866376132 0
-0.0104192378282 -0.00151047765856 0
-0.0104203269706 -0.00163286140453 0
-0.0103067156972 -0.00174527033384 0
-0.0101920887347 -0.00174897668888 0
-0.010079334427 -0.00176699928436 0
-0.00996281170037 -0.00180968947425 0
-0.00982301340832 -0.00190393975259 0
-0.00961239585631 -0.00205178636783 0
-0.00931560462325 -0.00225351400635 0
-0.00881006609494 -0.00251319509266 0
-0.00802406920263 -0.00276815572673 0
-0.00683869481046 -0.00294506914634 0
-0.00507306935214 -0.00284717739539 0
-0.00283522623078 -0.00216722586633 0
-0.00997680409743 -0.000729526855895 0
0.0110309521208 -0.0011986491989 0
-0.0155176285391 -0.00674949480106 0
-0.0215558440931 -0.0326764309839 0
-0.0122465141975 -0.0636219236159 0
0.00736974849565 -0.0677844593967 0
0.0214755291385 -0.0415144026183 0
0.0177872609029 -0.0109801114224 0
-0.00991298369367 -0.000853625547137 0
0.010639357096 -0.00102674957403 0
0.0127451295734 -0.00334676453201 0
0.019949803071 -0.0302367653002 0
-0.0116448998231 -0.00198903154343 0
-0.0177150630998 -0.0193884218243 0
0.0165429689991 -0.0805476915659 0
-0.0194598950997 -0.0680733197884 0
-0.00262969385149 -0.0978248112161 0
-0.0102294475147 -0.000456563702386 0
0.010963002714 -0.000968901231339 0
0.0126706191876 -0.00858995626863 0
-0.0116497579932 -0.0058576217364 0
0.0191729298286 -0.0572164658092 0
-0.017809613426 -0.0403931085167 0
0.00548385045811 -0.113304135353 0
-0.0130477691287 -0.0996764905769 0
0.0123137473158 -0.0177421579608 0
-0.0109709560652 -0.0123574095112 0
0.0164604423467 -0.0867240788412 0
-0.0170538561342 -0.0681496757129 0
0.0115728162409 -0.110468845822 0
-0.00713557097672 -0.117685842437 0
0.0129544402686 -0.00358046056696 0
0.0104363568011 -0.00209756382225 0
-0.0100713944672 -0.00129595203757 0
0.0106081827586 -0.00135644459514 0
0.0096360568771 -0.00117724709446 0
-0.00869357090079 -0.00100208464518 0
-0.00983605395512 -0.00109692493655 0
0.0104641254346 -0.000802043157639 0
-0.00994447653908 -0.000493693595706 0
0.0202338381693 -0.0211826460558 0
0.0154608096132 -0.0493888783802 0
-0.0179814035999 -0.0418402949518 0
-0.00227440617653 -0.0588949443328 0
-0.0187528381509 -0.0148957274825 0
0.0147185780888 -0.0378193799441 0
-0.0122122506836 -0.0240051846834 0
-0.0154520610951 -0.0920845270971 0
-0.000670970064483 -0.124403273531 0
0.0101868958801 -0.00491718708117 0
-0.0118841098447 -0.00226123281232 0
-0.00958593789428 -0.00312146914788 0
0.0137698292742 -0.10503356403 0
-0.0100395773088 -0.000845110746308 0
0.0105267656921 -0.00101567120643 0
0.0100977369914 -0.00113513287723 0
-0.0096847494985 -0.000515324383643 0
0.020298564644 -0.0634832384741 0
-0.0213098844062 -0.0504833690446 0
0.0110736156776 -0.0900940809782 0
-0.0092672633271 -0.0906160482958 0
-0.0154437253981 -0.010395746246 0
-0.00616322967786 -0.000684448287296 0
0.00672171374621 -0.000862546828871 0
-0.00638139408034 -0.0273592011752 0
0.0138685975195 -0.0164703606585 0
-0.0120945397859 -0.0053941896735 0
-0.0142685505825 -0.0135732703784 0
0.0135061558042 -0.00766380090386 0
0.00364025800529 -0.0290284075548 0
0.0090681859541 -0.0104799291344 0
-0.00863045590981 -0.00722148716542 0
0.0146799387424 -0.072627564828 0
-0.0130771277125 -0.0514905763322 0
0.00710840950352 -0.126978566567 0
-0.0124626305851 -0.111153007139 0
0.0108550351273 -0.000880524509522 0
-0.00994377672089 -0.000567645606643 0
0.0173553985109 -0.0146746216788 0
0.015230552403 -0.00680912745647 0
0.00934368796638 -0.0238246833915 0
-0.00915999443045 -0.124701985938 0
-0.00980597094657 -0.00146329455109 0
0.0105352302831 -0.00152455458726 0
-0.0110289984275 -0.000944910948523 0
-0.00872817034212 -0.00114950783871 0
-0.0080453274939 -0.00209973547119 0
0.0122547622678 -0.0520223467558 0
0.0120583421798 -0.00166351029596 0
-0.00895310119331 -0.0329382730929 0
-0.00369873151547 -0.131827122426 0
-0.00840196186614 -0.017773540486 0
-0.0143790335192 -0.0863584906378 0
0.00251542278203 -0.134890402498 0
-0.0135076899743 -0.00462650840287 0
0.0219990503438 -0.0426594436625 0
-0.0208399726477 -0.0310027436439 0
-0.0156526964122 -0.0762440237706 0
0.00396097609931 -0.0906936277337 0
0.00929299966088 -0.00158257022028 0
0.00917839531199 -0.0033572286298 0
-0.00889414127334 -0.00197601781563 0
0.00832479791438 -0.0230878349258 0
-0.01229833697 -0.017423125675 0
0.0113540540356 -0.120129515029 0
0.0131769513673 -0.10163413887 0
0.0100289810876 -0.000893083472604 0
-0.0096948840397 -0.000447265927736 0
0.00725220834816 -0.00130987931228 0
-0.00645206049404 -0.00116763125033 0
0.00756549129221 -0.0147933740331 0
0.00792568272603 -0.00741660888278 0
-0.00705470915332 -0.0106828152091 0
-0.00784074494888 -0.00493604989435 0
-0.0117802308559 -0.068955379407 0
0.00941574008908 -0.00176365599583 0
0.0202557347288 -0.0198175904086 0
0.0101590440398 -0.00162836164088 0
-0.00928225739076 -0.00152430406191 0
0.00950764236479 -0.0034294168384 0
-0.0091422413345 -0.000897955919808 0
-0.00670414372252 -0.132837070962 0
0.0131297448162 -0.0896772126665 0
0.00957721113088 -0.125999978819 0
0.0152238229746 -0.0267216712097 0
0.00816995572804 -0.0330750476578 0
-0.0126489794074 -0.106691804327 0
0.0103624064857 -0.000875131531232 0
-0.00996478679918 -0.000614707897589 0
-0.0122861345944 -0.0420351825112 0
0.0178621650018 -0.033601640531 0
-0.0102054675292 -0.00149392617941 0
0.0106585146678 -0.0014941891405 0
0.0183923328125 -0.0616871167298 0
-0.0206730946426 -0.0515028210464 0
-0.00525597307361 -0.0778034508658 0
-0.0183358533165 -0.0142404336119 0
0.0126386547038 -0.00549214971227 0
-0.0116227426993 -0.00342961243021 0
0.0133085656552 -0.00301279271215 0
0.0197611393184 -0.0423508170267 0
-0.0176193225366 -0.0286490435057 0
0.00164670514702 -0.108146402953 0
-0.0162781455288 -0.0871217262806 0
0.0160433124236 -0.0140288658078 0
-0.00188609661492 -0.0364984730006 0
-0.0150483513809 -0.0103765462806 0
0.0144068040082 -0.0716384955726 0
-0.0101834013015 -0.0011552137795 0
0.0106136304516 -0.00124941627538 0
0.0107755318552 -0.000816603604788 0
-0.0100317176398 -0.000525959068444 0
-0.0105800433945 -0.000821198244508 0
0.0149986251664 -0.00674022226796 0
0.00979819506916 -0.0469273383319 0
-0.0067674114387 -0.0241534537871 0
-0.000633301242875 -0.138137362672 0
-0.018882302082 -0.028759495415 0
0.0114871731341 -0.00169889259405 0
-0.0132414522582 -0.00419814647602 0
0.0112914422484 -0.00339253589897 0
0.0104752398971 -0.00109502039555 0
-0.00960300191836 -0.000919076450335 0
-0.0104669275134 -0.0019791046747 0
0.00812025409732 -0.0050184044901 0
-0.0125645728781 -0.00250165388505 0
-0.00811002290228 -0.00313588725493 0
0.0215821924595 -0.0282243286027 0
0.0163709838739 -0.0893084113938 0
-0.0140360148868 -0.017788739045 0
-0.0181009093462 -0.0760087308245 0
-0.00382099243783 -0.113242860851 0
-0.00851512561205 -0.0188904406852 0
-0.00837437891008 -0.000725840729276 0
0.00936133187933 -0.000986532947724 0
0.0103634832967 -0.0166126472743 0
0.0106006689168 -0.00116434351769 0
-0.00999025329919 -0.00104357931576 0
0.0117714227113 -0.00195999461658 0
-0.00738888052901 -0.0504286819621 0
0.0197664755071 -0.0267037712929 0
-0.0162465517118 -0.00886345734927 0
0.0179549029573 -0.0129261075584 0
-0.0193964069241 -0.0207067011335 0
0.00359625838404 -0.0522873756853 0
-0.0165919202667 -0.0577460796435 0
-0.0099895529544 -0.11019734205 0
0.0123815181274 -0.012323557279 0
0.0105000965013 -0.000849419149846 0
-0.00994877882634 -0.000413774456941 0
0.0182761253033 -0.0212112370126 0
0.0105879003821 -0.000900076937118 0
-0.00998656043245 -0.000684031332513 0
-0.0114863530525 -0.00890774001432 0
0.0181479133404 -0.0720070668654 0
-0.0178834932768 -0.0541505469174 0
0.00880815113449 -0.113808852502 0
0.00906723292429 -0.00178481915661 0
-0.00816252182153 -0.00164854316387 0
-0.0104844647824 -0.123704903772 0
-0.00996224832263 -0.00156316271425 0
0.0105849018546 -0.00157386654457 0
0.0108310129517 -0.0658102303159 0
-0.00799184197354 -0.0426666585535 0
0.00494785462514 -0.137310589513 0
-0.0103886027655 -0.00053862975623 0
-0.0110269553033 -0.00127090202848 0
0.0134038227153 -0.094023897691 0
0.0113202941937 -0.00102228060692 0
0.0123181244352 -0.112834029962 0
0.0152810969027 -0.00597775972236 0
-4.12513948764e-05 -0.0761815919524 0
-0.020231868983 -0.0208628053453 0
0.0159769373131 -0.0596402146483 0
-0.0139142678707 -0.040344888511 0
0.00481564696955 -0.124822172549 0
0.00641778950009 -0.019295092233 0
-0.0185744482937 -0.0621026503288 0
0.00667684939785 -0.00163672626881 0
0.00966466905268 -0.00119329260119 0
-0.00941144925505 -0.000560311958027 0
-0.00628373556499 -0.0136322164561 0
-0.0115512946376 -0.0793814004961 0
0.00844354114205 -0.0413350110458 0
-0.0125669912856 -0.0997487368253 0
0.00889270148644 -0.00236735725625 0
0.0105074562091 -0.0010328021217 0
-0.0100974286781 -0.000858068628567 0
-0.00876838249362 -0.00129379935077 0
0.0154491573908 -0.00953706528017 0
0.0101517036886 -0.000854082730348 0
-0.00981659651641 -0.000499297631147 0
-0.0139107313525 -0.00672893980512 0
0.0213442099481 -0.0542281304338 0
-0.0210360789547 -0.0405362908572 0
0.00700016354028 -0.0937581309957 0
-0.0128802230097 -0.0876622345925 0
0.00549970974081 -0.00100400462038 0
-0.00446437856933 -0.000703923067926 0
0.0108880614935 -0.00722266595456 0
-0.011274966887 -0.113358383037 0
-0.0101675053614 -0.00477175561785 0
0.0138642321811 -0.101237819651 0
-0.0199433673844 -0.0622946091246 0
-0.00688254025182 -0.103181692084 0
-0.0146968353994 -0.0132294551033 0
-0.00341121213876 -0.000579494023221 0
0.00389426312777 -0.000680786057636 0
-0.00537233252914 -0.00111668046275 0
0.0106735235969 -0.00145289906804 0
-0.01009093059 -0.000698446616192 0
0.0218466743266 -0.0340134524207 0
0.0185664915649 -0.0763035385332 0
-0.0146681954134 -0.0977981424822 0
-0.0137251501496 -0.004013554247 0
0.0165689227631 -0.0467952240823 0
-0.0142764823752 -0.0313333475575 0
0.00223711774529 -0.121629467342 0
0.0105207737316 -0.00127105618941 0
-0.00971793892679 -0.00114265168802 0
0.00684345216644 -0.0106023649425 0
0.0125139247987 -0.0312758257982 0
0.0103549548988 -0.000964927386104 0
-0.00939001548582 -0.000714099343273 0
-0.00689451558167 -0.00732681957818 0
0.0116780601744 -0.0748948772153 0
-0.00933120493714 -0.0516066869842 0
-0.011311884369 -0.119128204359 0
0.0066435770131 -0.134969765104 0
0.0117897838325 -0.0601132396644 0
0.0154572166667 -0.0153516940802 0
0.0103176513753 -0.00181775142103 0
-0.00949710411773 -0.00175977710751 0
0.0185421043642 -0.0439562929619 0
0.00791188537884 -0.00486460526071 0
0.0141641778622 -0.00444711293127 0
0.000518160044354 -0.0146758362182 0
0.0133116180479 -0.0336667589652 0
-0.00838054240146 -0.00579579792623 0
-0.0150409140904 -0.0305882645839 0
-0.00850542500619 -0.000840121474027 0
-0.0205978133256 -0.0379959816103 0
-0.0116605276331 -0.00150810686693 0
0.0180107125653 -0.0321361132884 0
-0.00707307623439 -0.00248162006025 0
-0.00366251894793 -0.00126594464778 0
0.00415813675344 -0.00139662857685 0
0.0106579495684 -0.00138565687774 0
-0.0102293421826 -0.00134006610428 0
0.011480237267 -0.00236688188132 0
0.00441239582107 -0.01739797822 0
-0.00990869630394 -0.0103481016297 0
-0.0100730184173 -0.00159392025568 0
0.010612372529 -0.00157434982717 0
-0.00861741470552 -0.00426261397283 0
0.00963282977763 -0.00128996327032 0
-0.0102091051174 -0.00201620949573 0
-0.00307888323994 -0.0182546049676 0
0.0102378518099 -0.00946279845214 0
-0.0166573941991 -0.00952584500484 0
-0.0106757528365 -0.00120242127879 0
0.0210069766216 -0.0498725303168 0
-0.00952454893334 -0.074211093335 0
0.00499370729585 -0.0243921238847 0
-0.00872503714871 -0.132568972753 0
0.0154528560064 -0.0948954604057 0
0.0107230377941 -0.000904128118343 0
-0.00990584434387 -0.00067155945629 0
0.00773750797052 -0.00339705036229 0
0.0110269569586 -0.073634082918 0
-0.00518167086844 -0.140361725962 0
-0.021787062096 -0.0405995969001 0
-0.0208421433896 -0.058597678505 0
-0.00642527809904 -0.0951791418031 0
-0.016302298543 -0.0137716239702 0
0.0188781609004 -0.0709096063773 0
0.0114016172526 -0.098849207554 0
0.00990118591493 -0.12962880063 0
0.0103065488707 -0.00244555204167 0
0.0105798077527 -0.00117613645762 0
-0.0100633254861 -0.00106284279065 0
-0.0052466431951 -0.0199752916708 0
-0.00531061743438 -0.0291466670233 0
-0.00243034283176 -0.140195767015 0
0.00128070170558 -0.141780969064 0
-0.00776526691257 -0.000937369795184 0
0.00868816591293 -0.00111053809969 0
0.0171799477762 -0.0111322537043 0
0.0105968777518 -0.00137006051038 0
-0.00998456793185 -0.00130287704908 0
0.0122524820183 -0.00209689872893 0
0.00634232563435 -0.0538470912442 0
-0.0102076866595 -0.093566823081 0
-0.0213222495979 -0.0272311999696 0
0.0037837592791 -0.0756198876904 0
0.00806760186086 -0.0039880374569 0
0.011366664538 -0.0976680207553 0
-0.00809018930932 -0.00243386032079 0
-0.0102667080955 -0.00159288328265 0
0.0106914877317 -0.00155765567522 0
-0.0172816052038 -0.0831432979602 0
-0.00104145396751 -0.112636955777 0
-0.0155168767413 -0.0229752528648 0
-0.0101872074722 -0.000462620899355 0
0.0123201552129 -0.00196710293159 0
0.0109224826727 -0.000839659378156 0
0.0104945286786 -0.000895904510221 0
-0.00999159320198 -0.000673666453302 0
0.0101556411577 -0.00278868230716 0
0.00713714244755 -0.00613203807652 0
-0.00729945648547 -0.00398789674675 0
0.0187646881687 -0.0149165542464 0
0.0212330925481 -0.0367684346307 0
-0.0193790363536 -0.0247517360824 0
-0.0176215295714 -0.0733702530924 0
0.000551359735101 -0.0947099532554 0
-0.0124661516477 -0.00310996143522 0
-0.0106934415271 -0.0976299672404 0
-0.0149724603535 -0.00653896043289 0
0.0201939084354 -0.0648478366396 0
-0.0136022942766 -0.0087131403534 0
-0.0203816966764 -0.0499991725619 0
0.0106485711626 -0.000794162424945 0
0.0218416836256 -0.047175504038 0
-0.0100222889244 -0.000444988681825 0
-0.0218005818307 -0.0358036182443 0
-0.0131254575983 -0.0750401249329 0
0.00713121937245 -0.0814543381346 0
0.0128023243262 -0.0223080672828 0
0.0154752940076 -0.0199185454983 0
-0.0108812333067 -0.0154291211267 0
-0.0164948024858 -0.0770797414714 0
-0.00481374379936 -0.121415953631 0
0.0117430083766 -0.111236949721 0
0.0111926311866 -0.121237933304 0
0.0209168311399 -0.0491853479002 0
-0.0195602064704 -0.0350566448615 0
0.00443783251126 -0.1032764038 0
-0.0146907899726 -0.0891861107567 0
0.00965522429058 -0.00106506486179 0
-0.00944778178096 -0.000517876379577 0
-0.00961228498447 -0.00155802337456 0
0.0190506417087 -0.0143736222295 0
0.0157556323803 -0.0797480333642 0
0.00903031326507 -0.121110978756 0
0.0138535670044 -0.00742628040464 0
0.00922948589589 -0.00147121639104 0
-0.0061692212095 -0.0356770915758 0
0.00326890225191 -0.140319790854 0
0.0110809070277 -0.000979069255515 0
-0.0100828081463 -0.000575257366918 0
-0.00716035125598 -0.0644939437822 0
-0.0098408273791 -0.0016600995761 0
0.0105387430341 -0.00167381696621 0
-0.0111303489984 -0.00129396834876 0
-0.0176403491453 -0.0112570677989 0
-0.009092306742 -0.000727074942163 0
-0.0126062842706 -0.00493543045741 0
0.0105854091418 -0.00098686070657 0
-0.0100027355705 -0.000443409822685 0
0.0140709421958 -0.0122640080976 0
-0.00331261301491 -0.000467786267127 0
0.00381568237076 -0.000577463926043 0
-0.0105325649383 -0.00058795730594 0
-0.00505842232012 -0.0153120030268 0