# vtk DataFile Version 2.0
Generated with Solid Solver
ASCII
DATASET UNSTRUCTURED_GRID
POINTS 1163 float 
0.0 3.5 0.0
2.2 3.5 0.0
2.2 4.0 0.0
0.0 4.0 0.0
0.0687499999999 3.5 0.0
0.1375 3.5 0.0
0.20625 3.5 0.0
0.275 3.5 0.0
0.343749999999 3.5 0.0
0.412499999999 3.5 0.0
0.481249999999 3.5 0.0
0.549999999999 3.5 0.0
0.618749999998 3.5 0.0
0.687499999998 3.5 0.0
0.756249999998 3.5 0.0
0.824999999998 3.5 0.0
0.893749999998 3.5 0.0
0.962499999997 3.5 0.0
1.03125 3.5 0.0
1.1 3.5 0.0
1.16875 3.5 0.0
1.2375 3.5 0.0
1.30625 3.5 0.0
1.375 3.5 0.0
1.44375 3.5 0.0
1.5125 3.5 0.0
1.58125 3.5 0.0
1.65 3.5 0.0
1.71875 3.5 0.0
1.7875 3.5 0.0
1.85625 3.5 0.0
1.925 3.5 0.0
1.99375 3.5 0.0
2.0625 3.5 0.0
2.13125 3.5 0.0
2.2 3.56430812579 0.0
2.2 3.6227083524 0.0
2.2 3.67574343203 0.0
2.2 3.72390623714 0.0
2.2 3.76764438299 0.0
2.2 3.80736436348 0.0
2.2 3.84343531161 0.0
2.2 3.87619247056 0.0
2.2 3.90594026646 0.0
2.2 3.93295517223 0.0
2.2 3.9574882542 0.0
2.2 3.97976750927 0.0
2.18000003888 4.0 0.0
2.15999995974 4.0 0.0
2.13999995594 4.0 0.0
2.12000003893 4.0 0.0
2.0999999813 4.0 0.0
2.07999993507 4.0 0.0
2.06000001965 4.0 0.0
2.04000002354 4.0 0.0
2.01999993997 4.0 0.0
1.99999999426 4.0 0.0
1.98000004623 4.0 0.0
1.95999996625 4.0 0.0
1.93999996787 4.0 0.0
1.92000005069 4.0 0.0
1.90000001292 4.0 0.0
1.87999994967 4.0 0.0
1.86000003245 4.0 0.0
1.84000003166 4.0 0.0
1.81999995194 4.0 0.0
1.80000002065 4.0 0.0
1.78000005962 4.0 0.0
1.75999997703 4.0 0.0
1.73999998149 4.0 0.0
1.72000006236 4.0 0.0
1.70000000651 4.0 0.0
1.67999995967 4.0 0.0
1.66000004242 4.0 0.0
1.64000004304 4.0 0.0
1.61999996152 4.0 0.0
1.6000000096 4.0 0.0
1.58000006667 4.0 0.0
1.55999998704 4.0 0.0
1.53999998381 4.0 0.0
1.52000006764 4.0 0.0
1.5000000299 4.0 0.0
1.47999996242 4.0 0.0
1.46000004337 4.0 0.0
1.4400000454 4.0 0.0
1.41999996386 4.0 0.0
1.40000002834 4.0 0.0
1.38000006734 4.0 0.0
1.35999998576 4.0 0.0
1.33999998537 4.0 0.0
1.32000006658 4.0 0.0
1.30000001585 4.0 0.0
1.27999996279 4.0 0.0
1.26000004759 4.0 0.0
1.24000004493 4.0 0.0
1.2199999616 4.0 0.0
1.20000000906 4.0 0.0
1.18000006792 4.0 0.0
1.15999998616 4.0 0.0
1.13999999119 4.0 0.0
1.12000007157 4.0 0.0
1.1 4.0 0.0
1.07999992843 4.0 0.0
1.06000000881 4.0 0.0
1.04000001384 4.0 0.0
1.01999993209 4.0 0.0
0.999999990948 4.0 0.0
0.98000003841 4.0 0.0
0.959999955072 4.0 0.0
0.939999952416 4.0 0.0
0.920000037214 4.0 0.0
0.899999984154 4.0 0.0
0.879999933427 4.0 0.0
0.860000014636 4.0 0.0
0.840000014246 4.0 0.0
0.819999932662 4.0 0.0
0.79999997166 4.0 0.0
0.780000036145 4.0 0.0
0.759999954604 4.0 0.0
0.73999995663 4.0 0.0
0.72000003758 4.0 0.0
0.699999970103 4.0 0.0
0.679999932361 4.0 0.0
0.660000016189 4.0 0.0
0.640000012962 4.0 0.0
0.61999993333 4.0 0.0
0.599999990406 4.0 0.0
0.58000003848 4.0 0.0
0.559999956964 4.0 0.0
0.539999957581 4.0 0.0
0.520000040329 4.0 0.0
0.499999993489 4.0 0.0
0.479999937647 4.0 0.0
0.460000018512 4.0 0.0
0.440000022972 4.0 0.0
0.419999940378 4.0 0.0
0.399999979352 4.0 0.0
0.380000048063 4.0 0.0
0.359999968347 4.0 0.0
0.339999967553 4.0 0.0
0.320000050328 4.0 0.0
0.299999987077 4.0 0.0
0.279999949312 4.0 0.0
0.260000032129 4.0 0.0
0.240000033752 4.0 0.0
0.219999953776 4.0 0.0
0.200000005737 4.0 0.0
0.180000060031 4.0 0.0
0.159999976465 4.0 0.0
0.139999980354 4.0 0.0
0.120000064926 4.0 0.0
0.100000018697 4.0 0.0
0.0799999610675 4.0 0.0
0.0600000440571 4.0 0.0
0.0400000402596 4.0 0.0
0.0199999611169 4.0 0.0
0.0 3.97976750927 0.0
0.0 3.9574882542 0.0
0.0 3.93295517223 0.0
0.0 3.90594026646 0.0
0.0 3.87619247056 0.0
0.0 3.84343531161 0.0
0.0 3.80736436348 0.0
0.0 3.76764438299 0.0
0.0 3.72390623714 0.0
0.0 3.67574343203 0.0
0.0 3.6227083524 0.0
0.0 3.56430812579 0.0
0.249757963562 3.75212589829 0.0
1.94999996706 3.74954522137 0.0
0.488710285893 3.75947702441 0.0
0.726520490699 3.7655965719 0.0
0.967283134849 3.7597072979 0.0
1.20619032017 3.75831098673 0.0
1.45842774915 3.76733088374 0.0
1.69012076678 3.7622332834 0.0
0.130754044069 3.86878249167 0.0
2.06924595593 3.86878249167 0.0
1.8299999918 3.84622455633 0.0
1.56816462369 3.85034872999 0.0
0.369913859351 3.84868157925 0.0
0.608733620231 3.84706187144 0.0
1.33069778866 3.84790908234 0.0
0.84323446252 3.84762979148 0.0
1.08873170817 3.84705870913 0.0
0.250539365135 3.87785524304 0.0
1.94967747948 3.87849609822 0.0
1.73218750075 3.8916046151 0.0
0.468661874066 3.89189322974 0.0
1.47574192429 3.89639134117 0.0
0.704258110321 3.8963912684 0.0
1.18331258449 3.8976320365 0.0
0.949999953744 3.89208018478 0.0
1.64795374468 3.91749779939 0.0
0.548928463645 3.91905583847 0.0
1.38619509199 3.91928594438 0.0
0.788926872841 3.91906062101 0.0
1.27071160784 3.91777932845 0.0
1.02999997296 3.91685174433 0.0
1.81733541416 3.69950870754 0.0
1.86999999106 3.91823503401 0.0
0.071252620538 3.93011431841 0.0
2.12874737946 3.93011431841 0.0
2.07400690796 3.74293885365 0.0
0.125993092043 3.74293885365 0.0
0.32995676804 3.92118147353 0.0
2.00999996712 3.92542383197 0.0
0.190000032884 3.92542383197 0.0
1.56698738743 3.72218882919 0.0
1.33000000474 3.72531695685 0.0
0.848014510843 3.71986098938 0.0
1.09024665585 3.72285801424 0.0
0.610276609989 3.72290563624 0.0
1.54999998543 3.92414142844 0.0
0.629999973146 3.92414137652 0.0
0.869999974031 3.92414141814 0.0
1.11000003579 3.92414141267 0.0
1.79030638642 3.92649353654 0.0
0.370434802927 3.72513294336 0.0
0.410903135411 3.92892991244 0.0
1.33000002597 3.93737911571 0.0
0.129927648482 3.94112154503 0.0
2.07007235152 3.94112154503 0.0
1.93000000928 3.93875927586 0.0
0.26999999072 3.93875927586 0.0
1.40966706061 3.83880068991 0.0
0.770332962441 3.83880062149 0.0
1.24904900022 3.84293377683 0.0
1.01033287484 3.83880060723 0.0
0.530342681434 3.83880307444 0.0
0.189895273961 3.63486992823 0.0
2.00989835291 3.62845703161 0.0
0.998888153878 3.61665036233 0.0
1.47894673873 3.61675180774 0.0
0.51733910646 3.62937665489 0.0
0.705112628302 3.618743723 0.0
1.66672137035 3.63168728155 0.0
1.18508242495 3.61871739348 0.0
1.71000003443 3.94408608591 0.0
0.489999965568 3.94463856597 0.0
1.44983363802 3.94422347836 0.0
0.729999997105 3.94465012565 0.0
1.21016639734 3.94422345842 0.0
0.928621800545 3.94440037102 0.0
2.00626203014 3.81543543551 0.0
0.193627962274 3.81528928332 0.0
1.66628164144 3.83559795895 0.0
1.75661718781 3.81065958113 0.0
1.61143779865 3.94859227761 0.0
0.991673865748 3.95161238438 0.0
0.0604617941233 3.86281264864 0.0
2.13953820588 3.86281264865 0.0
0.300965570716 3.8114148258 0.0
0.2970894797 3.66361086085 0.0
0.398842167194 3.60449226805 0.0
1.51000004877 3.95218393067 0.0
1.90135619383 3.81213273629 0.0
0.669405272842 3.95495208979 0.0
1.07142780558 3.94866325309 0.0
0.592085094025 3.94901139323 0.0
0.831051660929 3.94633985879 0.0
1.14940528892 3.9549521224 0.0
0.44409344258 3.82719938178 0.0
1.49646539728 3.82376850413 0.0
0.683434082651 3.82631713605 0.0
0.92337834777 3.8234861632 0.0
1.16343437877 3.82631615351 0.0
1.90749084149 3.65350700271 0.0
1.8278758005 3.95083911942 0.0
0.37243073327 3.95235211027 0.0
1.29345662549 3.60569899261 0.0
0.813407949226 3.60572380122 0.0
1.29317153636 3.96216077293 0.0
1.367704599 3.96055764734 0.0
1.97071235041 3.96038324024 0.0
0.22928764959 3.96038324024 0.0
2.10610581798 3.66047411138 0.0
0.0938941820177 3.66047411138 0.0
1.67000000105 3.95862953468 0.0
1.74869816704 3.96079301687 0.0
0.531976761939 3.96138655466 0.0
0.451361042387 3.96112774725 0.0
0.771976832233 3.96138887156 0.0
1.88843481911 3.95881554986 0.0
1.61277513709 3.78538823015 0.0
2.13311214501 3.79435403671 0.0
0.0668878549946 3.79435403671 0.0
1.76678797151 3.60286552601 0.0
0.311702446283 3.9611157379 0.0
1.02877762737 3.96159282031 0.0
1.40830122607 3.96143175203 0.0
1.25214210333 3.957355862 0.0
1.59476493393 3.9048774062 0.0
1.56950979124 3.96148017208 0.0
0.890017020275 3.96125792969 0.0
2.03089110475 3.96040268709 0.0
0.169108895255 3.96040268709 0.0
0.939722125942 3.68539157065 0.0
1.41686981874 3.69192854313 0.0
0.0426348006718 3.96101756902 0.0
2.15736519933 3.96101756902 0.0
1.36077308019 3.79177204211 0.0
0.817982383499 3.78962669257 0.0
1.05834720932 3.78780184893 0.0
0.578349529346 3.78781530011 0.0
1.77992711518 3.87652731382 0.0
0.417982153133 3.87594990465 0.0
1.84363633012 3.77741329286 0.0
1.52244994479 3.87704541475 0.0
0.657426528912 3.87734838249 0.0
1.13742651778 3.87734834025 0.0
0.898116026439 3.8800466833 0.0
1.56984259435 3.64465823131 0.0
1.08983016076 3.6446495206 0.0
0.609942357805 3.64483976081 0.0
1.29451769374 3.79627773068 0.0
0.0893439668432 3.96574839433 0.0
2.11065603316 3.96574839433 0.0
2.01422398896 3.86980625824 0.0
0.185776011038 3.86980625824 0.0
0.305957237756 3.87340573745 0.0
1.72977480551 3.68665973332 0.0
1.25418096296 3.69351129461 0.0
0.629999973146 3.96272981435 0.0
1.11000003579 3.96272983221 0.0
0.772975283819 3.69297597031 0.0
1.89089074715 3.86951346173 0.0
0.445448577516 3.69456159386 0.0
1.82621986864 3.89678318705 0.0
2.07135424223 3.81165410377 0.0
0.128645757768 3.81165410377 0.0
0.373320289473 3.89968791662 0.0
1.79000004014 3.96541718891 0.0
0.383302070088 3.78976392323 0.0
0.409457623385 3.96502881851 0.0
1.55531527123 3.78787141386 0.0
1.34861332978 3.89383287415 0.0
0.593245985735 3.89483466551 0.0
0.833245353375 3.89479604398 0.0
1.0732444554 3.8948349405 0.0
0.911896623122 3.59194725763 0.0
0.187580554011 3.70699710313 0.0
2.01241944599 3.70699710313 0.0
1.39201907571 3.59233063354 0.0
2.09635520798 3.90516200201 0.0
0.103644792024 3.90516200201 0.0
1.89086147526 3.72621461413 0.0
1.02102684616 3.70044819701 0.0
1.49813234221 3.70194667869 0.0
0.53965669049 3.70593418829 0.0
1.63719578665 3.69772473547 0.0
0.685447658936 3.70127585046 0.0
1.16541741817 3.70128744764 0.0
0.901649266036 3.76287226775 0.0
0.992351690321 3.90662993531 0.0
1.69131894868 3.90657323657 0.0
1.9699561555 3.91599371502 0.0
0.230043844497 3.91599371502 0.0
1.61980840676 3.85005402918 0.0
2.04685187594 3.90639759008 0.0
0.153148124058 3.90639759008 0.0
0.512139828486 3.90538520837 0.0
1.43057458921 3.90702644399 0.0
0.749149996349 3.90689574876 0.0
[...]
POINT_DATA 1163
VECTORS Displacement float
0.0 0.0 0
0.0 0.0 0
2.45440273352e-05 0.000195120623919 0
-0.000134568042244 -3.57156649633e-05 0
0.0 0.0 0
0.0 0.0 0
0.0 0.0 0
0.0 0.0 0
0.0 0.0 0
0.0 0.0 0
0.0 0.0 0
0.0 0.0 0
0.0 0.0 0
0.0 0.0 0
0.0 0.0 0
0.0 0.0 0
0.0 0.0 0
0.0 0.0 0
0.0 0.0 0
0.0 0.0 0
0.0 0.0 0
0.0 0.0 0
0.0 0.0 0
0.0 0.0 0
0.0 0.0 0
0.0 0.0 0
0.0 0.0 0
0.0 0.0 0
0.0 0.0 0
0.0 0.0 0
0.0 0.0 0
0.0 0.0 0
0.0 0.0 0
0.0 0.0 0
0.0 0.0 0
0.000170499078388 -8.28137478054e-05 0
0.000289857348285 -7.08956695411e-05 0
0.000359427645306 -2.48523819586e-05 0
0.000374070898203 3.29692064437e-05 0
0.000356237546795 8.42319625896e-05 0
0.000317381752555 0.000126686129964 0
0.000266825936428 0.000156938473629 0
0.000216170035958 0.00017705834001 0
0.000166911401104 0.000188753921371 0
0.000122745288172 0.000193431212684 0
8.49126589187e-05 0.000195161119232 0
5.26512270808e-05 0.000195260340342 0
2.46829849427e-05 0.000167427879592 0
2.48307096154e-05 0.000140927636015 0
2.40145759534e-05 0.0001160543567 0
2.16198243103e-05 9.28161664906e-05 0
1.69755678079e-05 7.08933259814e-05 0
9.5343569651e-06 4.90655408272e-05 0
-1.21923088081e-06 2.78653317051e-05 0
-1.53036864226e-05 4.61449677597e-06 0
-3.33966523731e-05 -1.94359248753e-05 0
-5.4688929824e-05 -4.71291270946e-05 0
-8.11584907e-05 -7.77097958783e-05 0
-0.000111471403494 -0.000113380127776 0
-0.000145400719372 -0.000155249302234 0
-0.00018477580775 -0.000202667293011 0
-0.000227414986464 -0.0002588149853 0
-0.000276443054269 -0.000322849629401 0
-0.000329115780302 -0.000398200410499 0
-0.000387310794091 -0.000483879779866 0
-0.000449503078615 -0.000584215038269 0
-0.00051959552658 -0.000699282950135 0
-0.000592969940346 -0.000832017540663 0
-0.000668086174617 -0.000984558889044 0
-0.000751974017863 -0.00115647409902 0
-0.000838808150494 -0.00135533081755 0
-0.000935031098198 -0.00158298391503 0
-0.00102901684236 -0.00184352151283 0
-0.00113325023458 -0.00214107829944 0
-0.00124237895807 -0.00248546380911 0
-0.00135482898271 -0.00288029253416 0
-0.00145632662713 -0.0033348775691 0
-0.00155931160003 -0.00387173633331 0
-0.0016873606582 -0.00450743704354 0
-0.00178957161245 -0.00526798825666 0
-0.00188332735595 -0.00622757236599 0
-0.00190546021557 -0.00750541487296 0
-0.00171080038994 -0.00961165880929 0
-0.00133579172923 -0.0112421904783 0
-0.000854636829742 -0.0123949541895 0
-0.00040392933552 -0.0130837945129 0
9.08380701435e-05 -0.0133098727849 0
0.000528203400297 -0.0130890859667 0
0.00097220246881 -0.0124001630983 0
0.00139106923231 -0.011244917333 0
0.00177969988544 -0.00961862986623 0
0.00196999180133 -0.00753819171207 0
0.00196168672168 -0.00624436139735 0
0.00189099261035 -0.00529380656022 0
0.00177557875522 -0.00450493931086 0
0.00167082258758 -0.00387169065827 0
0.00154827668105 -0.00333070196523 0
0.00143549396375 -0.00287401202233 0
0.00132502935861 -0.00247980749952 0
0.00121667088386 -0.00213508166277 0
0.00111288743579 -0.00183360363901 0
0.00101751094425 -0.00156953441702 0
0.000921149326017 -0.00133932171808 0
0.000830533815461 -0.00113847766245 0
0.000749823771109 -0.000963647441848 0
0.000669035794429 -0.00081033986887 0
0.000595565586877 -0.000675219873939 0
0.000528270976808 -0.000557475463455 0
0.000462415907302 -0.000454527580884 0
0.000401064015142 -0.000366006501907 0
0.000344106029487 -0.000290527095802 0
0.000293339287124 -0.000224653953079 0
0.000245697085776 -0.000169220798654 0
0.000202657408932 -0.000120386396892 0
0.000162730017644 -7.96721147447e-05 0
0.000126487192991 -4.59240490938e-05 0
9.38972421447e-05 -1.7992001056e-05 0
6.48386773801e-05 5.33573327888e-06 0
3.78538486867e-05 2.40705194589e-05 0
1.45176648284e-05 3.93982265391e-05 0
-6.77095577073e-06 5.10979660224e-05 0
-2.55253967227e-05 6.05603285457e-05 0
-4.20605941499e-05 6.72161843223e-05 0
-5.66083660189e-05 7.18627307056e-05 0
-6.92693460638e-05 7.46583580354e-05 0
-8.01244680505e-05 7.63995221825e-05 0
-8.9691583693e-05 7.67381612534e-05 0
-9.77238668036e-05 7.62361174339e-05 0
-0.000104901756866 7.4641281014e-05 0
-0.000110722409208 7.26045919608e-05 0
-0.000115718227997 6.9881134698e-05 0
-0.000119799170784 6.6896739457e-05 0
-0.000123195768424 6.3422880653e-05 0
-0.000125904155847 5.991217598e-05 0
-0.000128074510217 5.60194597554e-05 0
-0.000129746037336 5.21897750249e-05 0
-0.000131097127126 4.81723808069e-05 0
-0.000132093433928 4.41289757324e-05 0
-0.000132799862995 4.00836082648e-05 0
-0.000133335792367 3.59898191464e-05 0
-0.000133658742572 3.19182152506e-05 0
-0.000133890546328 2.78446122366e-05 0
-0.0001340213649 2.37913671875e-05 0
-0.000134096456265 1.97287578442e-05 0
-0.000134136767477 1.56722572645e-05 0
-0.000134163269145 1.1592458616e-05 0
-0.000134187159557 7.48630853554e-06 0
-0.00013420782449 3.35022157386e-06 0
-0.000134245012113 -8.18650257175e-07 0
-0.000134288241516 -5.0367591462e-06 0
-0.00013434864861 -9.30120594255e-06 0
-0.000134407625449 -1.3620626358e-05 0
-0.000134468581124 -1.79869441123e-05 0
-0.000134519914307 -2.23972801003e-05 0
-0.000134551447832 -2.68322454083e-05 0
-0.000134566448927 -3.12783986788e-05 0
-0.000130085835635 -3.57173853428e-05 0
-0.000125156255411 -3.57397028542e-05 0
-0.000119712850233 -3.57865679863e-05 0
-0.000113649051478 -3.58701898345e-05 0
-0.00010684887341 -3.59867533034e-05 0
-9.90970963911e-05 -3.60742927415e-05 0
-9.03017847074e-05 -3.60248773348e-05 0
-8.00154468864e-05 -3.57312368509e-05 0
-6.81035621e-05 -3.47605114799e-05 0
-5.41018012147e-05 -3.23857300296e-05 0
-3.77626963363e-05 -2.77366280614e-05 0
-2.00982103183e-05 -1.89173182205e-05 0
-8.28207765542e-05 1.14702335851e-05 0
0.000516430089907 -0.00011744652312 0
-0.000128858378837 4.64958778351e-05 0
-0.000260142701501 3.20981622694e-05 0
-0.000611182020049 -0.000424514282979 0
-0.00100625649986 -0.00250810542015 0
0.000535684941773 -0.00439376721207 0
0.000963406872167 -0.00140328718462 0
-0.000105590887769 -7.08045577617e-06 0
0.000241606946991 4.11248811804e-05 0
0.000416735347813 -0.000479353919797 0
0.000957843480929 -0.00379202730965 0
-0.000112555890866 3.89432476967e-05 0
-0.000146036545838 7.80016347301e-05 0
-0.000655346663838 -0.00611827512049 0
-0.000230317785513 -5.90253394035e-05 0
-0.000546531772258 -0.00134483470275 0
-0.000110250576331 1.68513340915e-05 0
0.00022772076475 -0.000103572967953 0
0.000258382701107 -0.00116929765527 0
-0.000120486631061 6.20119470617e-05 0
0.000755902385515 -0.00719390796274 0
-0.00011445304462 7.3179759704e-05 0
-0.000383023757228 -0.00287350467899 0
-0.000114752283576 -0.000359578837051 0
0.000122881857928 -0.00229337951331 0
-0.000115308362487 7.7818519693e-05 0
-0.000109190273568 -0.00946513749875 0
-5.89960771653e-05 1.88938544061e-05 0
-0.000507530149882 -0.00553509548783 0
3.48372935947e-05 -0.000827854390569 0
0.000752710306921 -0.000452823241873 0
6.28538453479e-05 -0.000317757389386 0
-0.000119114869157 -1.98682101553e-05 0
0.00012722978331 0.000102628964913 0
0.000415385401809 9.68191892509e-06 0
-7.36834905485e-05 -8.02465255085e-06 0
-0.000119736238309 3.37660134856e-05 0
0.000106843616253 -1.53296786185e-05 0
-0.000118697660926 5.30433653721e-06 0
0.000969357635941 -0.00246859069548 0
-0.000505947748231 -0.00345526390186 0
-0.000440815642476 -9.93430940297e-05 0
-0.000898780830755 -0.00108817055838 0
-0.000184045876227 4.19436506453e-05 0
0.000386742314659 -0.00478097534997 0
-0.00010252382185 8.4064168134e-05 0
-3.93006544394e-06 -0.000110149111666 0
8.80941644724e-05 -0.00163829892791 0
-2.72954268578e-05 -0.000711172398592 0
-9.31313441422e-05 2.4691470371e-05 0
-0.000120921101852 5.10060197317e-05 0
-0.000401172139429 -0.00855704705113 0
-0.000121670787734 -7.16612330926e-06 0
9.56846445911e-05 4.56978912514e-05 0
2.08642155474e-05 -0.000150397360452 0
-0.000122151417556 2.16560135235e-05 0
0.000137158005459 -0.0065806173702 0
-0.000207818147112 2.78837123134e-05 0
-0.000935079394022 -0.00412576063667 0
-0.000435489834306 -0.000682447256242 0
-0.000133191376489 6.81131957993e-05 0
-4.31577663174e-05 -2.21165818301e-07 0
0.000393985290026 -4.86970843832e-05 0
-0.000581949475306 -0.000344076512018 0
0.000374234067802 -0.00157780679418 0
-0.000103928842987 1.52096613181e-05 0
-0.00021077535388 -1.03715512644e-05 0
0.000784643670125 -0.000893070870369 0
-0.000711938932224 -0.0010420061002 0
-0.000237672880047 -0.00141390587449 0
-0.000117694835966 6.73130119802e-05 0
0.000320061858871 -0.00964077360539 0
-4.82968456705e-05 5.94213364005e-05 0
0.000241884773455 -0.00356777246461 0
0.000129842653488 -0.000286736186198 0
0.000365178233151 -2.79155986763e-05 0
-9.45966074117e-05 4.63585449549e-06 0
0.00079423326551 -0.00189845456187 0
0.000690865092814 -0.000917961843882 0
-0.000289616957202 -0.00303087667693 0
0.000256411106241 -0.000584847784332 0
-0.0001037501938 -2.21142253153e-05 0
0.00024601491325 9.86788559832e-05 0
-0.000100696954978 2.33180432742e-05 0
-6.29636750848e-05 9.74015210041e-06 0
-5.71625491287e-05 7.89226760097e-06 0
0.000106826164727 -0.00670340988116 0
0.00045734161589 -0.000219410311846 0
-7.07368886268e-05 7.82809968663e-05 0
0.000345037772527 -0.00120124938829 0
-0.000100483271382 8.19983002854e-05 0
3.00726856804e-05 -4.0473365188e-05 0
0.000502459528126 -0.00224800894748 0
-0.00011986544554 5.13278571175e-05 0
0.000894843181186 -0.00505193037736 0
-0.000183861798149 6.79432983052e-05 0
-0.000373773497519 -0.000260257208882 0
-0.000848215331601 -0.0023085936593 0
0.000556166379895 -0.000173439730398 0
-0.000148957272752 -0.00050593740079 0
-0.000124225746756 4.30108907443e-05 0
-0.000438703931067 -0.00132372131265 0
-0.000300774520544 -6.38766077129e-05 0
0.00021052576301 -0.00697070325633 0
5.51957163187e-06 -0.0109211550261 0
-6.40613774373e-06 -7.76586118235e-05 0
-0.000126128525313 1.34639577655e-05 0
0.000373584192019 -3.38478456761e-06 0
-4.84042003171e-05 -1.12519578143e-05 0
-0.000462253699636 -0.00194164563043 0
-0.000356968030648 -0.0010377760932 0
-0.000111557726937 7.42566035024e-05 0
-0.000121755980193 5.9384501565e-05 0
4.88396812926e-06 2.75679770116e-05 0
-0.000101098055036 -0.000268009136944 0
0.00105705094607 -0.00246757318899 0
0.000350861196651 6.39694864606e-05 0
-8.68950969184e-05 -2.01267103724e-05 0
0.000617960218793 -0.000393607582 0
-0.000126329771168 3.03066711568e-05 0
0.00039593632534 -0.000836656621365 0
5.90016729059e-05 -0.0114512772044 0
0.000360329257695 -0.00493298770228 0
0.00045091948307 -0.00339037480992 0
-0.000484073237639 -0.00415676945172 0
0.000144575746817 -0.000171039440217 0
4.15405835389e-05 3.67660621475e-06 0
-0.000125921490427 1.08348067894e-06 0
-0.000598564771543 -0.000286634248854 0
0.000131497740986 -0.00302221060473 0
-0.00012594128967 -2.623751694e-05 0
7.89942800153e-05 0.000137329495185 0
-0.000350133459071 -0.00511294384119 0
-0.000324992898527 -3.62526081571e-05 0
-0.000738878592748 -0.000992981188875 0
-0.000158971682635 6.32615875785e-05 0
0.00031458126183 -0.000773186247918 0
-0.000118180991081 5.05749345943e-05 0
0.000627355900764 -0.000407408500578 0
0.00090595247767 -0.00530929752834 0
-0.000133120193357 8.11245233116e-05 0
-0.000440749724207 -0.00201577022083 0
-0.000155040624228 -0.000176921289675 0
0.000750648002001 -0.00154689146971 0
-0.000775456616644 -0.000761837045557 0
-0.000159807177073 1.59208023321e-05 0
-0.000828282431194 -0.00436968183063 0
-0.000126969153315 -1.59159048241e-05 0
6.55922674408e-05 8.45722833499e-05 0
0.000244595202657 -1.05510407297e-05 0
-0.000106747087981 4.00788820893e-06 0
-0.000111678133843 2.76299170687e-05 0
0.000891295803861 -0.000834631685686 0
-0.000806560376426 -0.00231323626758 0
-8.40532299121e-05 8.12816774236e-05 0
0.000569115870056 -0.00165744388438 0
-0.000335416228254 -2.27614880229e-05 0
0.00027404954764 -0.000244146768591 0
-0.000104312900315 2.7143276902e-05 0
0.000165560223293 -0.000500392301316 0
0.000344631993049 3.0164909761e-05 0
-9.18612439146e-05 -7.56041326903e-06 0
-0.00011780351334 4.23702493111e-05 0
-0.000310291252587 -0.000731245757376 0
-0.000107061373485 3.56556439043e-05 0
-0.000124821248925 5.06979745659e-05 0
0.00103810691967 -0.00340145136119 0
-0.000502819210925 -0.00779783468406 0
-0.000121190160272 8.23950195897e-05 0
-0.00010456265288 -3.71153886439e-05 0
-0.000166077241156 -0.00120380321694 0
-0.000388470021551 -0.000147370429367 0
-6.56902303252e-05 1.01363222999e-06 0
0.000467376394056 -4.36432775974e-05 0
-2.07535285823e-05 -0.00129939055519 0
0.000170038801373 6.94636217237e-05 0
-0.000113638261606 -1.27730778271e-05 0
0.000619280065802 -0.000239383989872 0
-0.000767997270398 -0.000606269292873 0
0.000669267044015 -0.00282955566464 0
-0.00014343432204 3.7290382217e-05 0
0.000988379516072 -0.00155402159151 0
-0.000240133618778 2.14488359093e-05 0
-0.000952881686979 -0.00159539216162 0
-0.000483430059129 -0.000203734529173 0
-3.66795364149e-05 -0.000575699466479 0
0.000174311573723 -0.001631673981 0
0.000116572778086 -7.04133089233e-05 0
-0.000117287377454 1.33566089003e-05 0
0.000838600862825 -0.00270102205294 0
0.000160848373521 2.42970726078e-05 0
-0.000114262291194 -2.36344997002e-06 0
-0.000119550275899 7.11182389371e-05 0
0.000383423820666 -0.00874354205019 0
-9.3652577352e-05 5.20410844349e-05 0
-0.000390574632699 -0.00403303938286 0
0.000395144598242 2.84531904912e-05 0
-6.82580363088e-05 -1.94154452875e-05 0
0.00028465764482 -0.000416454452591 0
-0.000112436702141 -2.65926268933e-05 0
0.000178941722725 0.000130443408112 0
-5.60462472814e-05 -0.00892156460468 0
-4.40892351314e-05 6.77971170812e-05 0
0.000733071877363 -0.00288348187279 0
-9.98768119993e-05 1.45208571891e-05 0
-9.01855229732e-05 2.04831414017e-05 0
-0.000827884543822 -0.00548629147153 0
0.00037026149113 -0.000100093537071 0
8.46321173596e-05 -0.00939472990561 0
0.000827617480643 -0.000782710262831 0
-0.000894319987281 -0.00153130810623 0
-0.000190229058448 5.9556869698e-05 0
0.000558695016718 -0.00778438661533 0
-7.8898988477e-05 7.43202710645e-05 0
8.08875533559e-05 -0.00277881691903 0
-0.000636620359674 -0.00248674824262 0
-0.000374798079396 -0.000126402838532 0
0.000445903432778 -0.000181868461747 0
-6.50014721662e-05 -0.000159659953334 0
-0.000127099661816 2.17683079117e-05 0
-0.000105152326956 7.76531892468e-05 0
3.98461705172e-05 -1.6474693344e-06 0
-0.000478596797397 -0.00519147627995 0
0.000115538777821 -0.000104307204401 0
-0.000184239903788 -0.000363662738411 0
5.26331592171e-05 4.33450808428e-05 0
-0.000126961593248 -7.10485329204e-06 0
-0.000127448421274 3.56195309884e-05 0
0.000630571226863 -0.00127142344357 0
1.90917287456e-06 -3.88961471957e-05 0
-0.000127557141147 7.86998405117e-06 0
-0.000124922260228 6.0735847966e-05 0
0.000645263133087 -0.00627674609534 0
-0.0001789369697 5.96550848043e-05 0
-0.000868354375474 -0.00299604891711 0
-0.000340061773087 -0.000414005776667 0
0.000354468763095 -9.26621475851e-05 0
-2.88089634976e-05 1.33781257601e-06 0
3.57138449113e-05 -0.00100421732874 0
9.08880698142e-05 -0.000427538686664 0
-0.000119813794227 5.89472024937e-05 0
-0.000658304504024 -0.0067890228157 0
-0.000158889132437 7.77999985673e-06 0
-0.000297929325599 -0.000882389416319 0
-0.00012890049783 7.62907550744e-05 0
-2.23496171719e-05 -3.72156282136e-06 0
0.000235139735961 -2.12225661237e-05 0
-3.53754870687e-05 3.47742966998e-06 0
0.000124568455743 -0.000209974515162 0
-0.000116552418562 2.65701029631e-05 0
0.000835505898946 -0.00384923425321 0
-0.000167519033259 -0.00757589678733 0
-2.7921402183e-05 -0.000208824708598 0
-0.000111152802389 3.63632605899e-05 0
0.000632355864102 -0.00597255055165 0
-9.98836546587e-05 8.1895991445e-05 0
-3.58762513273e-05 -0.00215932611937 0
0.000294969694348 5.83130372341e-05 0
-9.79380616359e-05 -1.35452319958e-05 0
-0.000521105583991 -0.00143423492168 0
9.98835383248e-05 -0.0039462570431 0
0.000420171226021 -1.42995225622e-05 0
-8.25401788847e-05 -2.88968527754e-07 0
-0.000118189355861 6.67565710281e-05 0
1.10199467625e-05 -0.0103476420414 0
-2.76057140007e-05 5.77534267165e-05 0
0.000245909015759 -0.000313128377306 0
0.000726903674267 -0.00345727464699 0
-0.000866904336618 -0.00314307968902 0
0.000542263059521 -0.00199531422674 0
0.000308601020088 9.74948795433e-05 0
-9.36182373545e-05 -2.64434332909e-05 0
-4.63006010558e-05 -0.0038253761773 0
0.000439330731365 -0.000512269481575 0
0.000633618284711 -0.000611060068028 0
-0.000455369384038 -0.000425804644681 0
-0.000353789265813 -0.00234520913244 0
-0.000103411845485 -8.75768793317e-06 0
-0.000438756449516 -0.00011227375648 0
-6.32230710465e-05 7.34988551908e-06 0
-0.000335652097427 -1.49424136e-05 0
-0.000105422660645 3.12452547364e-05 0
0.000768260978703 -0.00405967894764 0
-5.42433036761e-05 5.10747546335e-06 0
-2.54481306901e-05 -1.22453289365e-05 0
0.000230295106026 -2.5172211703e-05 0
6.49756923427e-05 0.000111465372192 0
-0.000127713087149 -2.1380919716e-05 0
0.000233111511921 -0.000350091435643 0
-0.000451510367529 -0.00079115430883 0
-0.000186120538453 -2.72506763169e-05 0
-0.000118969803836 -2.8838128984e-05 0
0.000129134767751 0.000148817158321 0
-7.95699102679e-05 3.42348938702e-06 0
0.000536679767915 -0.000127011450686 0
-7.50754651616e-05 1.53030779922e-05 0
-0.000482197835264 -0.000312724866183 0
0.00038543919334 -0.000930056620576 0
-0.000140722684134 5.74552476013e-05 0
-0.000113984956413 3.32917483723e-05 0
0.000287918362546 -0.00503342511645 0
-0.00063457322696 -0.000630389585501 0
-0.000850897076602 -0.00310279543992 0
0.000413297821114 -0.00059406474101 0
-0.000384417682367 -0.00898700639394 0
0.000300809324489 1.13085358929e-05 0
-9.9884502172e-05 -1.18771757648e-06 0
0.000497185156942 -0.000381244127231 0
-0.000983218634616 -0.00347752614777 0
0.000580339768478 -0.00101229670423 0
-0.000278021929207 1.84348760347e-05 0
-0.000229539047884 -7.04089984857e-06 0
-0.000466636270778 -0.000927857143169 0
-0.000138237205328 7.42173751151e-05 0
-0.000286818521966 -0.00644751473587 0
0.000116750159128 -0.0122717532596 0
0.000930769766769 -0.00569387689093 0
0.000641181201794 -0.000289748869189 0
0.00011434198301 7.42744370156e-05 0
-0.00012023148554 -1.34975153276e-05 0
-9.00813473587e-05 8.0623836713e-05 0
-6.88467510711e-05 7.79381909916e-05 0
0.00060665348175 -0.00137582873126 0
0.000758801077549 -0.00200482567252 0
-6.10188384391e-05 -6.57297243517e-06 0
0.000424835009814 -6.31975095876e-06 0
0.000843611480061 -0.00145213670317 0
0.000172179380885 9.80909855587e-05 0
-0.000113395702022 -1.95576509974e-05 0
0.000417802625356 -0.000295789625649 0
-0.00085966589085 -0.00681846857153 0
0.000112070099628 -5.29185151905e-05 0
-0.000217921130738 5.3462497917e-05 0
-0.000977882568098 -0.00206577731666 0
-0.000310056988279 -0.000595058039209 0
-0.000848182815611 -0.00459111508813 0
-0.000126981581454 4.58775283422e-05 0
-0.000128471898552 -2.97421479113e-05 0
6.28340037542e-05 0.000157911305067 0
-0.000111538737665 -9.68755437819e-05 0
-0.000254663914078 -0.00157837327202 0
-0.000122893756976 8.35992134369e-05 0
-0.000105238789133 1.08787295022e-05 0
0.000571773241453 -0.000255096787821 0
0.000258345183333 -5.25685546017e-05 0
0.000102349479398 2.18233096693e-05 0
-0.000120152523918 -1.87876636201e-06 0
3.78811293084e-06 -0.000422097803956 0
-0.00044877704332 -0.000877403509853 0
-0.000125210805408 5.4575208484e-05 0
0.000973846468581 -0.00189989751647 0
0.000995764170646 -0.00452543856232 0
-0.000161837952072 7.56031500598e-05 0
-0.000304462148268 -0.000158372082453 0
-0.000694966663329 -0.00177312656154 0
-0.000115334319217 4.54822938422e-05 0
-0.000265538708564 -0.000558398225387 0
-0.000127098078319 5.40539910378e-05 0
0.000388772764309 -0.00739104398897 0
-0.000125291687473 6.84422764202e-05 0
-0.000152246858586 4.94040763534e-05 0
0.0001698065766 -3.39727250298e-05 0
0.000614493207311 -0.0052128940909 0
-0.000113253250421 8.03148783338e-06 0
-0.000225748754295 4.86819927742e-05 0
-0.000495206855868 -0.000404260665619 0
-0.00098289355058 -0.00279219693353 0
0.000161455211685 -0.0028478655463 0
0.000508759704821 -0.00255604584626 0
-0.000111063917495 8.13024159214e-05 0
-3.54529448549e-05 -1.23421403843e-05 0