# vtk DataFile Version 2.0
Generated with Solid Solver
ASCII
DATASET UNSTRUCTURED_GRID
POINTS 1163 float 
0.0 3.5 0.0
2.2 3.5 0.0
2.2 4.0 0.0
0.0 4.0 0.0
0.0687499999999 3.5 0.0
0.1375 3.5 0.0
0.20625 3.5 0.0
0.275 3.5 0.0
0.343749999999 3.5 0.0
0.412499999999 3.5 0.0
0.481249999999 3.5 0.0
0.549999999999 3.5 0.0
0.618749999998 3.5 0.0
0.687499999998 3.5 0.0
0.756249999998 3.5 0.0
0.824999999998 3.5 0.0
0.893749999998 3.5 0.0
0.962499999997 3.5 0.0
1.03125 3.5 0.0
1.1 3.5 0.0
1.16875 3.5 0.0
1.2375 3.5 0.0
1.30625 3.5 0.0
1.375 3.5 0.0
1.44375 3.5 0.0
1.5125 3.5 0.0
1.58125 3.5 0.0
1.65 3.5 0.0
1.71875 3.5 0.0
1.7875 3.5 0.0
1.85625 3.5 0.0
1.925 3.5 0.0
1.99375 3.5 0.0
2.0625 3.5 0.0
2.13125 3.5 0.0
2.2 3.56430812579 0.0
2.2 3.6227083524 0.0
2.2 3.67574343203 0.0
2.2 3.72390623714 0.0
2.2 3.76764438299 0.0
2.2 3.80736436348 0.0
2.2 3.84343531161 0.0
2.2 3.87619247056 0.0
2.2 3.90594026646 0.0
2.2 3.93295517223 0.0
2.2 3.9574882542 0.0
2.2 3.97976750927 0.0
2.18000003888 4.0 0.0
2.15999995974 4.0 0.0
2.13999995594 4.0 0.0
2.12000003893 4.0 0.0
2.0999999813 4.0 0.0
2.07999993507 4.0 0.0
2.06000001965 4.0 0.0
2.04000002354 4.0 0.0
2.01999993997 4.0 0.0
1.99999999426 4.0 0.0
1.98000004623 4.0 0.0
1.95999996625 4.0 0.0
1.93999996787 4.0 0.0
1.92000005069 4.0 0.0
1.90000001292 4.0 0.0
1.87999994967 4.0 0.0
1.86000003245 4.0 0.0
1.84000003166 4.0 0.0
1.81999995194 4.0 0.0
1.80000002065 4.0 0.0
1.78000005962 4.0 0.0
1.75999997703 4.0 0.0
1.73999998149 4.0 0.0
1.72000006236 4.0 0.0
1.70000000651 4.0 0.0
1.67999995967 4.0 0.0
1.66000004242 4.0 0.0
1.64000004304 4.0 0.0
1.61999996152 4.0 0.0
1.6000000096 4.0 0.0
1.58000006667 4.0 0.0
1.55999998704 4.0 0.0
1.53999998381 4.0 0.0
1.52000006764 4.0 0.0
1.5000000299 4.0 0.0
1.47999996242 4.0 0.0
1.46000004337 4.0 0.0
1.4400000454 4.0 0.0
1.41999996386 4.0 0.0
1.40000002834 4.0 0.0
1.38000006734 4.0 0.0
1.35999998576 4.0 0.0
1.33999998537 4.0 0.0
1.32000006658 4.0 0.0
1.30000001585 4.0 0.0
1.27999996279 4.0 0.0
1.26000004759 4.0 0.0
1.24000004493 4.0 0.0
1.2199999616 4.0 0.0
1.20000000906 4.0 0.0
1.18000006792 4.0 0.0
1.15999998616 4.0 0.0
1.13999999119 4.0 0.0
1.12000007157 4.0 0.0
1.1 4.0 0.0
1.07999992843 4.0 0.0
1.06000000881 4.0 0.0
1.04000001384 4.0 0.0
1.01999993209 4.0 0.0
0.999999990948 4.0 0.0
0.98000003841 4.0 0.0
0.959999955072 4.0 0.0
0.939999952416 4.0 0.0
0.920000037214 4.0 0.0
0.899999984154 4.0 0.0
0.879999933427 4.0 0.0
0.860000014636 4.0 0.0
0.840000014246 4.0 0.0
0.819999932662 4.0 0.0
0.79999997166 4.0 0.0
0.780000036145 4.0 0.0
0.759999954604 4.0 0.0
0.73999995663 4.0 0.0
0.72000003758 4.0 0.0
0.699999970103 4.0 0.0
0.679999932361 4.0 0.0
0.660000016189 4.0 0.0
0.640000012962 4.0 0.0
0.61999993333 4.0 0.0
0.599999990406 4.0 0.0
0.58000003848 4.0 0.0
0.559999956964 4.0 0.0
0.539999957581 4.0 0.0
0.520000040329 4.0 0.0
0.499999993489 4.0 0.0
0.479999937647 4.0 0.0
0.460000018512 4.0 0.0
0.440000022972 4.0 0.0
0.419999940378 4.0 0.0
0.399999979352 4.0 0.0
0.380000048063 4.0 0.0
0.359999968347 4.0 0.0
0.339999967553 4.0 0.0
0.320000050328 4.0 0.0
0.299999987077 4.0 0.0
0.279999949312 4.0 0.0
0.260000032129 4.0 0.0
0.240000033752 4.0 0.0
0.219999953776 4.0 0.0
0.200000005737 4.0 0.0
0.180000060031 4.0 0.0
0.159999976465 4.0 0.0
0.139999980354 4.0 0.0
0.120000064926 4.0 0.0
0.100000018697 4.0 0.0
0.0799999610675 4.0 0.0
0.0600000440571 4.0 0.0
0.0400000402596 4.0 0.0
0.0199999611169 4.0 0.0
0.0 3.97976750927 0.0
0.0 3.9574882542 0.0
0.0 3.93295517223 0.0
0.0 3.90594026646 0.0
0.0 3.87619247056 0.0
0.0 3.84343531161 0.0
0.0 3.80736436348 0.0
0.0 3.76764438299 0.0
0.0 3.72390623714 0.0
0.0 3.67574343203 0.0
0.0 3.6227083524 0.0
0.0 3.56430812579 0.0
0.249757963562 3.75212589829 0.0
1.94999996706 3.74954522137 0.0
0.488710285893 3.75947702441 0.0
0.726520490699 3.7655965719 0.0
0.967283134849 3.7597072979 0.0
1.20619032017 3.75831098673 0.0
1.45842774915 3.76733088374 0.0
1.69012076678 3.7622332834 0.0
0.130754044069 3.86878249167 0.0
2.06924595593 3.86878249167 0.0
1.8299999918 3.84622455633 0.0
1.56816462369 3.85034872999 0.0
0.369913859351 3.84868157925 0.0
0.608733620231 3.84706187144 0.0
1.33069778866 3.84790908234 0.0
0.84323446252 3.84762979148 0.0
1.08873170817 3.84705870913 0.0
0.250539365135 3.87785524304 0.0
1.94967747948 3.87849609822 0.0
1.73218750075 3.8916046151 0.0
0.468661874066 3.89189322974 0.0
1.47574192429 3.89639134117 0.0
0.704258110321 3.8963912684 0.0
1.18331258449 3.8976320365 0.0
0.949999953744 3.89208018478 0.0
1.64795374468 3.91749779939 0.0
0.548928463645 3.91905583847 0.0
1.38619509199 3.91928594438 0.0
0.788926872841 3.91906062101 0.0
1.27071160784 3.91777932845 0.0
1.02999997296 3.91685174433 0.0
1.81733541416 3.69950870754 0.0
1.86999999106 3.91823503401 0.0
0.071252620538 3.93011431841 0.0
2.12874737946 3.93011431841 0.0
2.07400690796 3.74293885365 0.0
0.125993092043 3.74293885365 0.0
0.32995676804 3.92118147353 0.0
2.00999996712 3.92542383197 0.0
0.190000032884 3.92542383197 0.0
1.56698738743 3.72218882919 0.0
1.33000000474 3.72531695685 0.0
0.848014510843 3.71986098938 0.0
1.09024665585 3.72285801424 0.0
0.610276609989 3.72290563624 0.0
1.54999998543 3.92414142844 0.0
0.629999973146 3.92414137652 0.0
0.869999974031 3.92414141814 0.0
1.11000003579 3.92414141267 0.0
1.79030638642 3.92649353654 0.0
0.370434802927 3.72513294336 0.0
0.410903135411 3.92892991244 0.0
1.33000002597 3.93737911571 0.0
0.129927648482 3.94112154503 0.0
2.07007235152 3.94112154503 0.0
1.93000000928 3.93875927586 0.0
0.26999999072 3.93875927586 0.0
1.40966706061 3.83880068991 0.0
0.770332962441 3.83880062149 0.0
1.24904900022 3.84293377683 0.0
1.01033287484 3.83880060723 0.0
0.530342681434 3.83880307444 0.0
0.189895273961 3.63486992823 0.0
2.00989835291 3.62845703161 0.0
0.998888153878 3.61665036233 0.0
1.47894673873 3.61675180774 0.0
0.51733910646 3.62937665489 0.0
0.705112628302 3.618743723 0.0
1.66672137035 3.63168728155 0.0
1.18508242495 3.61871739348 0.0
1.71000003443 3.94408608591 0.0
0.489999965568 3.94463856597 0.0
1.44983363802 3.94422347836 0.0
0.729999997105 3.94465012565 0.0
1.21016639734 3.94422345842 0.0
0.928621800545 3.94440037102 0.0
2.00626203014 3.81543543551 0.0
0.193627962274 3.81528928332 0.0
1.66628164144 3.83559795895 0.0
1.75661718781 3.81065958113 0.0
1.61143779865 3.94859227761 0.0
0.991673865748 3.95161238438 0.0
0.0604617941233 3.86281264864 0.0
2.13953820588 3.86281264865 0.0
0.300965570716 3.8114148258 0.0
0.2970894797 3.66361086085 0.0
0.398842167194 3.60449226805 0.0
1.51000004877 3.95218393067 0.0
1.90135619383 3.81213273629 0.0
0.669405272842 3.95495208979 0.0
1.07142780558 3.94866325309 0.0
0.592085094025 3.94901139323 0.0
0.831051660929 3.94633985879 0.0
1.14940528892 3.9549521224 0.0
0.44409344258 3.82719938178 0.0
1.49646539728 3.82376850413 0.0
0.683434082651 3.82631713605 0.0
0.92337834777 3.8234861632 0.0
1.16343437877 3.82631615351 0.0
1.90749084149 3.65350700271 0.0
1.8278758005 3.95083911942 0.0
0.37243073327 3.95235211027 0.0
1.29345662549 3.60569899261 0.0
0.813407949226 3.60572380122 0.0
1.29317153636 3.96216077293 0.0
1.367704599 3.96055764734 0.0
1.97071235041 3.96038324024 0.0
0.22928764959 3.96038324024 0.0
2.10610581798 3.66047411138 0.0
0.0938941820177 3.66047411138 0.0
1.67000000105 3.95862953468 0.0
1.74869816704 3.96079301687 0.0
0.531976761939 3.96138655466 0.0
0.451361042387 3.96112774725 0.0
0.771976832233 3.96138887156 0.0
1.88843481911 3.95881554986 0.0
1.61277513709 3.78538823015 0.0
2.13311214501 3.79435403671 0.0
0.0668878549946 3.79435403671 0.0
1.76678797151 3.60286552601 0.0
0.311702446283 3.9611157379 0.0
1.02877762737 3.96159282031 0.0
1.40830122607 3.96143175203 0.0
1.25214210333 3.957355862 0.0
1.59476493393 3.9048774062 0.0
1.56950979124 3.96148017208 0.0
0.890017020275 3.96125792969 0.0
2.03089110475 3.96040268709 0.0
0.169108895255 3.96040268709 0.0
0.939722125942 3.68539157065 0.0
1.41686981874 3.69192854313 0.0
0.0426348006718 3.96101756902 0.0
2.15736519933 3.96101756902 0.0
1.36077308019 3.79177204211 0.0
0.817982383499 3.78962669257 0.0
1.05834720932 3.78780184893 0.0
0.578349529346 3.78781530011 0.0
1.77992711518 3.87652731382 0.0
0.417982153133 3.87594990465 0.0
1.84363633012 3.77741329286 0.0
1.52244994479 3.87704541475 0.0
0.657426528912 3.87734838249 0.0
1.13742651778 3.87734834025 0.0
0.898116026439 3.8800466833 0.0
1.56984259435 3.64465823131 0.0
1.08983016076 3.6446495206 0.0
0.609942357805 3.64483976081 0.0
1.29451769374 3.79627773068 0.0
0.0893439668432 3.96574839433 0.0
2.11065603316 3.96574839433 0.0
2.01422398896 3.86980625824 0.0
0.185776011038 3.86980625824 0.0
0.305957237756 3.87340573745 0.0
1.72977480551 3.68665973332 0.0
1.25418096296 3.69351129461 0.0
0.629999973146 3.96272981435 0.0
1.11000003579 3.96272983221 0.0
0.772975283819 3.69297597031 0.0
1.89089074715 3.86951346173 0.0
0.445448577516 3.69456159386 0.0
1.82621986864 3.89678318705 0.0
2.07135424223 3.81165410377 0.0
0.128645757768 3.81165410377 0.0
0.373320289473 3.89968791662 0.0
1.79000004014 3.96541718891 0.0
0.383302070088 3.78976392323 0.0
0.409457623385 3.96502881851 0.0
1.55531527123 3.78787141386 0.0
1.34861332978 3.89383287415 0.0
0.593245985735 3.89483466551 0.0
0.833245353375 3.89479604398 0.0
1.0732444554 3.8948349405 0.0
0.911896623122 3.59194725763 0.0
0.187580554011 3.70699710313 0.0
2.01241944599 3.70699710313 0.0
1.39201907571 3.59233063354 0.0
2.09635520798 3.90516200201 0.0
0.103644792024 3.90516200201 0.0
1.89086147526 3.72621461413 0.0
1.02102684616 3.70044819701 0.0
1.49813234221 3.70194667869 0.0
0.53965669049 3.70593418829 0.0
1.63719578665 3.69772473547 0.0
0.685447658936 3.70127585046 0.0
1.16541741817 3.70128744764 0.0
0.901649266036 3.76287226775 0.0
0.992351690321 3.90662993531 0.0
1.69131894868 3.90657323657 0.0
1.9699561555 3.91599371502 0.0
0.230043844497 3.91599371502 0.0
1.61980840676 3.85005402918 0.0
2.04685187594 3.90639759008 0.0
0.153148124058 3.90639759008 0.0
0.512139828486 3.90538520837 0.0
1.43057458921 3.90702644399 0.0
0.749149996349 3.90689574876 0.0
[...]
POINT_DATA 1163
VECTORS Displacement float
0.0 0.0 0
0.0 0.0 0
0.00442189309438 -0.00118319091859 0
-0.00622874965641 -0.000564185682935 0
0.0 0.0 0
0.0 0.0 0
0.0 0.0 0
0.0 0.0 0
0.0 0.0 0
0.0 0.0 0
0.0 0.0 0
0.0 0.0 0
0.0 0.0 0
0.0 0.0 0
0.0 0.0 0
0.0 0.0 0
0.0 0.0 0
0.0 0.0 0
0.0 0.0 0
0.0 0.0 0
0.0 0.0 0
0.0 0.0 0
0.0 0.0 0
0.0 0.0 0
0.0 0.0 0
0.0 0.0 0
0.0 0.0 0
0.0 0.0 0
0.0 0.0 0
0.0 0.0 0
0.0 0.0 0
0.0 0.0 0
0.0 0.0 0
0.0 0.0 0
0.0 0.0 0
0.000777617723881 -0.000703546299735 0
0.00143237148837 -0.00101221500267 0
0.00201224939614 -0.00116029272045 0
0.00248306211877 -0.00122229425737 0
0.00286532819471 -0.00123666079367 0
0.00318094002982 -0.00122916264278 0
0.00343810522696 -0.00121733071594 0
0.00365937243642 -0.00120424247715 0
0.00384788979853 -0.00119354469368 0
0.00401405337435 -0.00118743626208 0
0.00416284886577 -0.00118436705413 0
0.00429819050919 -0.00118321641578 0
0.00442187353724 -0.00106054209268 0
0.00442118090203 -0.000936930400401 0
0.00441922863983 -0.000813173387314 0
0.00441555011197 -0.00068996984363 0
0.00441034895754 -0.000568511022611 0
0.00440400203807 -0.000449558410128 0
0.00439604722837 -0.000333569363285 0
0.00438771021591 -0.00022135771658 0
0.00437808342169 -0.000113107342883 0
0.00436856879538 -9.09415153499e-06 0
0.00435758490332 9.06991113119e-05 0
0.00434593314953 0.00018496636152 0
0.00433427737844 0.000274099766307 0
0.00432082214429 0.000358059476985 0
0.00430692734099 0.000436226598884 0
0.00428983607155 0.000508758464512 0
0.0042708698763 0.000574267027767 0
0.0042480112074 0.000633622225104 0
0.00422164465798 0.000683893414645 0
0.00418803672955 0.000725189384168 0
0.00414907168282 0.00075575182506 0
0.004105650166 0.00077292190294 0
0.00405104297606 0.000780826288873 0
0.0039876678707 0.000769423684963 0
0.00390972065075 0.000743232273346 0
0.00382268237104 0.000693761150871 0
0.00371527609969 0.000623652287361 0
0.00359506625146 0.000522186743524 0
0.00345385699669 0.000390623798912 0
0.00330044221779 0.000222211954994 0
0.00312384449509 6.52662681266e-06 0
0.00291494043954 -0.000244839116818 0
0.00268868405481 -0.000555777019302 0
0.0024303469681 -0.000928766612634 0
0.00214742053404 -0.00137433393098 0
0.00182931841469 -0.00189490161703 0
0.0014750728239 -0.00251329312058 0
0.00108263787902 -0.00323530712217 0
0.000676270931686 -0.00407905853002 0
0.00021854993864 -0.00505533111209 0
-0.000253919366792 -0.00617349954092 0
-0.000762897106922 -0.00745795057445 0
-0.00129785045127 -0.0089457432453 0
-0.0019090714069 -0.0106520046923 0
-0.0024971838552 -0.0126057273967 0
-0.00311312139765 -0.0148575760087 0
-0.0037074046932 -0.0174371648043 0
-0.00434301676905 -0.0204074711619 0
-0.00489485738407 -0.0238362116821 0
-0.00548485245384 -0.0278572001569 0
-0.00592607526175 -0.0325767008571 0
-0.00619291378237 -0.0382900493722 0
-0.00505988890001 -0.0469803670749 0
-0.00357011495372 -0.0548628901893 0
-0.00224928404343 -0.0622882418226 0
-0.000962293765217 -0.0692061447116 0
0.000142071038691 -0.0756827939297 0
0.000956454963746 -0.08174075644 0
0.00167318748636 -0.0873229096966 0
0.0021852254356 -0.0924580662967 0
0.0024743655729 -0.0971424193745 0
0.00263204365029 -0.101351056337 0
0.00261174075274 -0.105095419606 0
0.00244726234403 -0.108351415088 0
0.00213590361272 -0.111119434526 0
0.00170404377406 -0.113394006215 0
0.0011674379963 -0.115165535555 0
0.00055656934302 -0.116430742107 0
-0.000148073943083 -0.117165499718 0
-0.00091792887449 -0.11742850986 0
-0.00181737033905 -0.117148917222 0
-0.0025959303057 -0.116346914227 0
-0.00326190326814 -0.115034410555 0
-0.00383020395758 -0.113212349378 0
-0.00429590845422 -0.110885026881 0
-0.00462825408159 -0.108064314538 0
-0.00481659182049 -0.104753532431 0
-0.00486610145763 -0.100961949818 0
-0.00477176012576 -0.0966926519384 0
-0.00444369103926 -0.0919680882574 0
-0.00400778996261 -0.0867653653063 0
-0.00332149046902 -0.0811201532659 0
-0.002485890528 -0.0750140321876 0
-0.00144684841491 -0.068461519188 0
-0.000309267961371 -0.0614317294405 0
0.00104960328683 -0.05395333383 0
0.00224640212579 -0.0458844571004 0
0.00317115387678 -0.0370416320687 0
0.00274910111114 -0.0321113597153 0
0.00209764228467 -0.0276301054071 0
0.00130568598582 -0.0238881054665 0
0.000591576988011 -0.0206855275224 0
-0.000129751154375 -0.0179385655905 0
-0.000869541070227 -0.0155483669299 0
-0.00158231033431 -0.0134953671484 0
-0.00222686451754 -0.0117109080577 0
-0.00287442710202 -0.0101764731845 0
-0.00344459922895 -0.00885092094252 0
-0.0039904165176 -0.00770656515637 0
-0.00448327539212 -0.00673629623307 0
-0.00489344105217 -0.00587984600629 0
-0.0052658898708 -0.00514123365214 0
-0.00556512416482 -0.00447555016776 0
-0.00581299348915 -0.003889796631 0
-0.00599244561241 -0.00333357343251 0
-0.00611766585227 -0.00280548139064 0
-0.00619260152994 -0.00227803641853 0
-0.00622536293059 -0.00173286224304 0
-0.00623057161166 -0.00116229953536 0
-0.00683906146139 -0.000562413539046 0
-0.00753949693893 -0.000575781103521 0
-0.00834671703577 -0.000632767345371 0
-0.00924889320251 -0.000763081109468 0
-0.0101983294945 -0.00104065558692 0
-0.0110671062846 -0.00146583952006 0
-0.011835322476 -0.00203937455271 0
-0.0121908479089 -0.0027771290191 0
-0.0119747595964 -0.00353924399467 0
-0.0109226871416 -0.00422301958703 0
-0.00856875912225 -0.00441368301311 0
-0.00503500558597 -0.00355672696474 0
-0.0143406146339 -0.00774298419369 0
0.00297141065269 8.98968257635e-05 0
-0.0165537705629 -0.0303160998858 0
-0.00593979406503 -0.0536937582831 0
0.00962251887535 -0.0465604943117 0
0.0141936753753 -0.0191830597494 0
0.00830653809064 -0.00261557331565 0
0.00471141535358 0.000324564495288 0
-0.0107540101718 -0.00401028244031 0
0.00363344527612 -0.000382519717226 0
0.00395653880822 0.000569939682141 0
0.00552930092817 -0.000149432264734 0
-0.0148760406353 -0.0204327423581 0
-0.0127084935496 -0.0614715021726 0
0.0093487617771 -0.0092837408025 0
0.00181068751224 -0.0750619334776 0
0.0133755424028 -0.0453748922169 0
-0.0112082380887 -0.00903536878324 0
0.00379783655804 0.00021221633663 0
0.00428463619101 0.000769892608963 0
-0.0143049262527 -0.0410591120038 0
0.00523945851466 -0.00183696515376 0
-0.00677409565611 -0.0842443532363 0
0.0101987741445 -0.0302105448454 0
0.00731644962747 -0.0774481347118 0
0.00430195178952 0.000621725192902 0
-0.0118115308294 -0.064072652039 0
0.00472327370202 -0.00553000058088 0
-0.00173353410134 -0.0945653016893 0
0.00603504932343 -0.015736897153 0
0.00900201544562 -0.0689024411818 0
0.00317433793808 0.000200391672885 0
0.00404907447653 0.000537715766062 0
-0.00846099139831 -0.00255773226978 0
0.00399849676861 -0.000741600487345 0
0.00267405737777 -0.000388599229013 0
-0.0127278541864 -0.0036474345281 0
-0.00916536911448 -0.0162763911528 0
0.00398810995331 -5.79386500294e-05 0
-0.00841063538033 -0.005995385795 0
0.00621312217298 -0.000641403772339 0
0.0115047295525 -0.00775852105186 0
0.00229232009709 -0.0440435567826 0
0.013484310117 -0.0283369276787 0
-0.0119727230135 -0.0371818936382 0
0.00427896528707 -0.00025957222751 0
-0.00933246500129 -0.0815166932538 0
0.00265493400443 -0.0936853767724 0
0.00913223539428 -0.0503449689002 0
0.00413603624713 0.000749669471342 0
-0.0159020928111 -0.0149430426176 0
-0.00994111604383 -0.0295698905409 0
0.00372470333954 -0.00948868401717 0
-0.00788682561969 -0.00402195591052 0
0.00406471341067 -0.000387454028116 0
0.00408056447822 0.000319261049547 0
-0.00741651291967 -0.0105445961967 0
0.0079655198552 -0.00438738136041 0
-0.00306642411529 -0.0730735198192 0
0.0116954004378 -0.017713082553 0
0.0113198441215 -0.057350938943 0
-0.0156970164621 -0.0471823792557 0
-0.0100922792072 -0.0034087700149 0
0.00156087054939 -0.000120450184397 0
0.00734524606416 -0.0181886752814 0
0.00581618055052 -0.00165016887818 0
-0.011099881467 -0.0162470262996 0
-0.00477490842228 -0.0214296616239 0
0.00359878581009 -0.00020040182475 0
0.0101225957738 -0.0102706973099 0
0.00411895046619 0.000795374760391 0
-0.00973051382398 -0.0519702896027 0
0.00350095050182 -0.00266762334732 0
-0.00454246940949 -0.0989816898991 0
0.00436615343363 -0.025556474167 0
0.00468987028301 -0.0929759036006 0
0.00333705059194 -6.94244751589e-05 0
-0.0128187156392 -0.00586633676761 0
0.00484603576317 0.000520468966105 0
0.00424639032573 0.000579256733398 0
0.00394561188008 0.000404062510388 0
0.00593516955058 -0.0840272154668 0
-0.0107490911534 -0.00251875319017 0
0.00357576378308 -0.000808388099505 0
-0.0146791322346 -0.0121517634424 0
-0.012940659852 -0.00748285044926 0
-0.0103322121581 -0.00835864781018 0
0.00350822333412 -0.000996900065564 0
0.00356667921974 0.000319692075112 0
-0.00667161324048 -0.0950194200873 0
0.00671315545053 -0.0643560875447 0
-0.00883613639148 -0.0796105559505 0
0.000465136188192 -0.101665265961 0
0.00467107105206 -0.0413873683017 0
-0.0167430505349 -0.0307274080865 0
0.00683855731986 -0.00147882376483 0
-0.00883985041627 -0.0652983334475 0
0.00706216901478 -0.0643221712577 0
0.0140733637518 -0.0296689998503 0
0.00217745860421 3.54694054975e-05 0
0.00413880430398 0.000675462576705 0
-0.00620198822714 -0.0223927367232 0
0.00843219856412 -0.0054300154744 0
6.92148321541e-05 -0.0197253115763 0
0.00142630290707 -0.0131244010561 0
0.00211332044139 -0.00672593557095 0
0.00416744443518 0.000139215379159 0
-0.00617293323318 -0.00795999180107 0
0.00181738744835 -0.000452646296811 0
-0.0105374261261 -0.00274836901103 0
0.00398731094665 0.000711417870644 0
0.00410486754986 0.000803960926961 0
-0.00786440458712 -0.0666973796453 0
-0.00668354604932 -0.0410300999823 0
-0.00239179154129 -0.105902064373 0
0.00415892714242 0.00048530821991 0
0.00560309979876 3.7911885039e-05 0
0.00308386178468 -0.00075209616167 0
-0.0123004136549 -0.0029207034727 0
0.00220610190003 -7.64299851261e-05 0
-0.00520318374629 -0.0143502181729 0
0.00545335472472 -0.0777431723647 0
0.00243088593548 -0.00442026807462 0
0.00200051915115 -0.0183110305566 0
0.00456001858106 0.000258260714883 0
0.00360499420305 -2.13672816615e-05 0
0.00284375045354 -0.101912618587 0
0.00417106551162 -0.000167506619505 0
-0.00680245738268 -0.00528032948935 0
0.00714185020939 -0.0333358163251 0
0.00902428619568 -0.00359498404305 0
-0.00741614658345 -0.00180613084911 0
0.00418417394417 -0.000920266911419 0
0.0103293516795 -0.00687050898094 0
0.000214134140522 -0.0610286974149 0
0.0134864361418 -0.0414842536729 0
-0.0143979604731 -0.0459296430672 0
0.00416779549701 0.000712437408225 0
-0.0145478201427 -0.0292205762589 0
0.00362060507528 0.000387384416014 0
0.00542638306115 -0.000793034711768 0
-0.00969085690728 -0.074588834797 0
0.0123594165071 -0.038906515771 0
0.00487800784014 -0.0801399586975 0
0.00513014646637 -0.000746351519575 0
0.0107273175649 -0.018013341067 0
-0.00944117786359 -0.0231572666764 0
0.0119570380517 -0.0117768710763 0
-0.00713520189689 -0.00299680746075 0
0.00420923234686 -0.000630766344353 0
0.00367727797981 -8.88529704672e-05 0
-0.0110010131691 -0.00573877753088 0
-0.012280454586 -0.0134124579515 0
0.00376334915327 0.000106004371513 0
0.0126031323156 -0.0114172267196 0
-0.00727652224658 -0.0903340647578 0
0.00442139676255 -0.054719356019 0
-0.00244572575244 -0.0383053451824 0
0.00386013276276 0.000429954845817 0
-0.0152875876636 -0.0189028319636 0
0.00406477866998 0.000650360419618 0
0.00323925121564 -0.000390497151941 0
-0.0123204606178 -0.00392176607376 0
-0.0118801236395 -0.0221435513956 0
0.00414052401985 0.0007563940425 0
-0.0165986789579 -0.0197683973208 0
-0.00470992318252 -0.0295394344712 0
0.00636712064785 -0.000564729991726 0
0.00657571412373 -0.0080038435814 0
-0.0119598256198 -0.0687560194169 0
0.000896271252656 -0.0876571460397 0
0.0111122924 -0.0555130292311 0
0.00366390884388 -0.0160915358802 0
-0.0128036768408 -0.00461327084574 0
0.00241819827227 -0.000131214316479 0
0.00617146595159 -0.00263158894603 0
0.00385102167062 -0.000541676804386 0
-0.00937397097769 -0.00333390501976 0
0.00300553497046 0.000182062871576 0
0.0110552323798 -0.0310142390412 0
0.00735058348749 -0.00169264743514 0
-0.014114108249 -0.0285000242675 0
0.004957862236 -0.00015905529058 0
-0.00770844000669 -0.0375538897545 0
0.0135954196282 -0.0188332964095 0
0.0058426128435 -0.0518275813654 0
0.00844587932596 -0.0741507285585 0
0.00431977315643 0.000741828746092 0
0.00395969315466 0.000137098364711 0
-0.00892784523764 -0.00789432505528 0
0.00508937600301 0.000327186026742 0
0.00387055103548 -0.000256440215632 0
-0.00932949614473 -0.00466295262075 0
-0.0133101842168 -0.0530902624212 0
0.00511243438775 -0.0033745997361 0
-0.00408957035423 -0.0900767254962 0
0.00774857576996 -0.0219494728366 0
0.00249303322339 -0.000726761748352 0
-0.0122482320462 -0.00308345158303 0
0.00449825841232 -0.093906289279 0
-0.00949983998144 -0.0019241792879 0
0.00381638257755 -0.000933696167947 0
0.00284182669381 -0.00182230217179 0
-0.00520081539824 -0.102249230309 0
0.00157918324926 -0.0319962594082 0
-0.0132527275264 -0.00850612892123 0
-0.0154539489764 -0.0117075505392 0
0.00921530142004 -0.0136053116503 0
0.00351533929705 0.000156532837234 0
0.00139251139674 -0.00954329869442 0
0.00395416929971 0.000374781386628 0
0.0145382767664 -0.0320837527665 0
-0.0114178082895 -0.050590029649 0
0.00409557644559 -0.00163961083207 0
-0.00636334230099 -0.0923008507402 0
0.00713230135903 -0.0325842804977 0
0.00383381139044 0.000562572603472 0
0.00391401208291 -0.0615245291811 0
0.00145630387933 -2.66377064782e-05 0
0.00418334827434 0.000321216875459 0
-0.00535851302339 -0.0106465541015 0
-0.00738123591536 -0.0752649653546 0
-0.00114425697614 -0.107907480592 0
0.00337528343907 -0.000425334279216 0
0.00167109301012 -0.105352370895 0
0.00418164217753 0.000573217009427 0
0.00420392281324 -0.00038693158042 0
-0.00690177812801 -0.00407429541762 0
-0.00412359223627 -0.0173461073604 0
0.00446903132186 0.000655294250793 0
0.00420579771693 4.35415539702e-06 0
-0.00606997853847 -0.00662810922491 0
-0.0163066495154 -0.0392552033909 0
0.0069571832006 -0.00249542832267 0
-0.00624095566639 -0.0727541510055 0
0.0130267886253 -0.0248827472942 0
0.00900299612172 -0.0652820454123 0
0.00120026982309 -6.09887101883e-05 0
-0.00726292117603 -0.0031587111548 0
0.00418537982589 0.000791319509649 0
0.00643827379355 -0.0842943773846 0
-0.0120922377148 -0.0382679706098 0
0.00633079739489 -0.011662400207 0
-0.00124664079186 -0.0818047975935 0
0.0114029245923 -0.0588252123036 0
-0.0140447807224 -0.0575616783011 0
-0.00601216202521 -0.00169953377947 0
0.000872150634323 -0.000174954789922 0
-0.00781589764398 -0.00466575302118 0
0.00397820463122 0.000413827792977 0
-0.0100691286901 -0.0127054634882 0
0.00738005083645 -0.00148333284099 0
0.00723260204674 -0.0057627237162 0
0.00478907763556 -0.0873318518815 0
-0.0167194934738 -0.0223344594942 0
0.00444828544876 -0.000810446559815 0
-0.00822592248401 -0.0850421739316 0
0.00935727519219 -0.0403694188703 0
0.00341337194334 -0.000562155251701 0
-0.0115828616293 -0.00333718286312 0
0.00402532888528 0.000787249815967 0
0.00411555881959 8.10675407152e-05 0
0.00296266258685 -0.00018614954435 0
-0.0131639753004 -0.00480695759782 0
-0.00622330666466 -0.0548130350621 0
0.00264085064799 -0.00256498027293 0
-0.00432425269063 -0.104515275009 0
0.00391077514838 -0.098396675024 0
0.00112808988634 -0.0263659026511 0
0.0130283110095 -0.0127746276938 0
0.0046242408384 0.000617989678252 0
0.00328240092954 -0.000939018787818 0
-0.0117405586936 -0.00243398356372 0
0.00994156761587 -0.00482473395046 0
0.00224369591585 -0.000373022689919 0
0.00395702127737 0.000520645422575 0
0.00610265436506 -0.00651914153349 0
0.0100448404255 -0.00578414688841 0
-0.00409619217686 -0.0100122095963 0
0.00243816410046 -0.0310413223707 0
-0.0129422116821 -0.00625632392894 0
-0.00199483742077 -0.0499472711491 0
-0.0155197938701 -0.0162080688457 0
0.00499835613001 -7.80287002006e-05 0
-0.00766673157809 -0.00775944683913 0
-0.00644058879726 -0.002220711503 0
0.000983614502501 -0.0004587763365 0
0.0042314907805 -0.000784078750085 0
-0.00711039778969 -0.00237492547767 0
0.00396760959958 0.000538007694759 0
0.00696527397616 -0.00528850284759 0
-0.0018138875835 -0.0137061475996 0
-0.00848675847954 -0.00155973286095 0
0.00399450301149 -0.000994688558384 0
-0.00684615954643 -0.0102326066392 0
0.00235221251278 2.28506268039e-05 0
-0.0138488769889 -0.0110363050852 0
0.00620863236847 -0.0108289057671 0
0.0037657786898 -0.000932307132307 0
-0.0161291007758 -0.0387734437684 0
-0.0124036682099 -0.016422467102 0
0.0088256694444 -0.00368048324047 0
0.0116114174336 -0.0476332622994 0
0.0036120986444 0.000351614299791 0
0.00422491741432 -0.0895608928715 0
0.00475549013071 -0.0074543020699 0
0.00347988347313 -0.000221205167522 0
-0.0118197756451 -0.00481133350816 0
0.00186595712665 -0.000144368530948 0
0.0133381102348 -0.0159501333765 0
0.00361157007132 -0.0752722100137 0
-0.00368996283794 -0.0588653585717 0
-0.00060882910942 -0.0733469205293 0
0.0124327378815 -0.0529286391151 0
-0.014564429149 -0.0542247377412 0
0.00880855877926 -0.00639081927605 0
0.0012401676236 -0.00538130327469 0
-0.000565329113368 -0.0160145901849 0
0.00238990586823 5.96934577025e-05 0
0.00402775642016 -0.000562308395388 0
-0.00822572482153 -0.00324553487402 0
-0.00688972666517 -0.0876837551921 0
-0.00627894788893 -0.0970431345452 0
0.00383722079235 -0.0630356689895 0
0.00215018299963 -0.0475527997922 0
-0.0120989590176 -0.00340627523183 0
0.00225711226226 -0.000329993781845 0
0.00468580451582 0.000514378311175 0
0.00384345609013 -0.000733416371994 0
-0.00938267378616 -0.00263153892456 0
0.0037583878576 0.000432064673529 0
0.00273862269544 -0.00107228611185 0
0.000236933887113 -0.111977656478 0
-0.00890183310427 -0.0544480712629 0
0.0147159803764 -0.0259862290037 0
0.00416499824281 0.000709795944217 0
0.0101038846988 -0.0172724240273 0
-0.00316665355067 -0.024905032159 0
-0.007061750692 -0.00136540689595 0
0.00425373814288 -0.00101795345741 0
0.0028508838043 -0.0853598373025 0
0.0117077148854 -0.0473069669192 0
-0.0108435849188 -0.0733056928163 0
-0.0118212017685 -0.00734666335693 0
0.00335626755642 0.0002838178599 0
0.00369165453657 6.55851562408e-05 0
0.00402429938761 -0.00024433283115 0
-0.00812054941427 -0.00475092656483 0
0.00409104158185 0.000623803885513 0
0.00411986777339 0.000779271552886 0
-0.00281939576173 -0.034467035184 0
0.0050830422363 0.000327590997054 0
0.00607939660755 -0.000709278182029 0
-0.0110089807871 -0.0638115545521 0
0.00485872122039 -0.0692333711932 0
0.0139770126117 -0.0373575671389 0
-0.0160278165559 -0.0255378021654 0
0.00982856044243 -0.0662929696561 0
-0.0169409890987 -0.0342579004344 0
0.00664011987342 -0.00343736837568 0
-0.0153122453655 -0.0475785046281 0
-0.00432057661623 -0.0804774021501 0
0.00385789109635 1.8440552754e-05 0
0.00783861136644 -0.00252323340422 0
-0.00981041042328 -0.00655920084578 0
-0.00651820214202 -0.0621079218429 0
0.00927521711684 -0.0560407344227 0
0.0140494277898 -0.0224671435959 0
0.0043153600689 0.00046165694664 0
0.0046443573014 0.00050847511616 0
-0.0109100016881 -0.0711075167163 0
-0.000273844903199 -0.0959639971179 0
0.0091863171131 -0.0629829105958 0
0.000595010306177 -0.00805341628488 0
-5.56529816461e-05 -0.0113699029089 0
0.00609062463089 -0.00153634908396 0
-0.00809204061962 -0.0749578162222 0
0.0125974104528 -0.0312975699794 0
0.00704139483961 -0.0732032959865 0
0.00424796474892 0.000238414306567 0
-0.00459215923594 -0.00937758798852 0
-0.00869819629285 -0.0196772384663 0
0.00515999582835 9.73048291658e-05 0
0.00384163530903 -0.00371620139607 0
0.00479651280048 -0.0207544543939 0
0.00429192666161 0.000717529705483 0
0.00423269219517 0.000399203905109 0
-0.00574482154817 -0.100555742445 0
0.00152648111689 -0.0386388275482 0
0.00323121422615 5.02862723998e-05 0
-0.0137199807007 -0.00707536595249 0
0.0123710022639 -0.0380218627066 0
-0.01038461165 -0.00195000072086 0
0.00364201404408 -0.000970655143148 0
-0.0139313402332 -0.0163404233684 0
-0.0147351468343 -0.036819876669 0
-0.00382127931525 -0.0123085310754 0
-0.0156859790043 -0.0349507553436 0
0.00394684663951 0.000251972274969 0
-0.00946185141439 -0.00947137706836 0