# vtk DataFile Version 2.0
Generated with Solid Solver
ASCII
DATASET UNSTRUCTURED_GRID
POINTS 1163 float 
0.0 3.5 0.0
2.2 3.5 0.0
2.2 4.0 0.0
0.0 4.0 0.0
0.0687499999999 3.5 0.0
0.1375 3.5 0.0
0.20625 3.5 0.0
0.275 3.5 0.0
0.343749999999 3.5 0.0
0.412499999999 3.5 0.0
0.481249999999 3.5 0.0
0.549999999999 3.5 0.0
0.618749999998 3.5 0.0
0.687499999998 3.5 0.0
0.756249999998 3.5 0.0
0.824999999998 3.5 0.0
0.893749999998 3.5 0.0
0.962499999997 3.5 0.0
1.03125 3.5 0.0
1.1 3.5 0.0
1.16875 3.5 0.0
1.2375 3.5 0.0
1.30625 3.5 0.0
1.375 3.5 0.0
1.44375 3.5 0.0
1.5125 3.5 0.0
1.58125 3.5 0.0
1.65 3.5 0.0
1.71875 3.5 0.0
1.7875 3.5 0.0
1.85625 3.5 0.0
1.925 3.5 0.0
1.99375 3.5 0.0
2.0625 3.5 0.0
2.13125 3.5 0.0
2.2 3.56430812579 0.0
2.2 3.6227083524 0.0
2.2 3.67574343203 0.0
2.2 3.72390623714 0.0
2.2 3.76764438299 0.0
2.2 3.80736436348 0.0
2.2 3.84343531161 0.0
2.2 3.87619247056 0.0
2.2 3.90594026646 0.0
2.2 3.93295517223 0.0
2.2 3.9574882542 0.0
2.2 3.97976750927 0.0
2.18000003888 4.0 0.0
2.15999995974 4.0 0.0
2.13999995594 4.0 0.0
2.12000003893 4.0 0.0
2.0999999813 4.0 0.0
2.07999993507 4.0 0.0
2.06000001965 4.0 0.0
2.04000002354 4.0 0.0
2.01999993997 4.0 0.0
1.99999999426 4.0 0.0
1.98000004623 4.0 0.0
1.95999996625 4.0 0.0
1.93999996787 4.0 0.0
1.92000005069 4.0 0.0
1.90000001292 4.0 0.0
1.87999994967 4.0 0.0
1.86000003245 4.0 0.0
1.84000003166 4.0 0.0
1.81999995194 4.0 0.0
1.80000002065 4.0 0.0
1.78000005962 4.0 0.0
1.75999997703 4.0 0.0
1.73999998149 4.0 0.0
1.72000006236 4.0 0.0
1.70000000651 4.0 0.0
1.67999995967 4.0 0.0
1.66000004242 4.0 0.0
1.64000004304 4.0 0.0
1.61999996152 4.0 0.0
1.6000000096 4.0 0.0
1.58000006667 4.0 0.0
1.55999998704 4.0 0.0
1.53999998381 4.0 0.0
1.52000006764 4.0 0.0
1.5000000299 4.0 0.0
1.47999996242 4.0 0.0
1.46000004337 4.0 0.0
1.4400000454 4.0 0.0
1.41999996386 4.0 0.0
1.40000002834 4.0 0.0
1.38000006734 4.0 0.0
1.35999998576 4.0 0.0
1.33999998537 4.0 0.0
1.32000006658 4.0 0.0
1.30000001585 4.0 0.0
1.27999996279 4.0 0.0
1.26000004759 4.0 0.0
1.24000004493 4.0 0.0
1.2199999616 4.0 0.0
1.20000000906 4.0 0.0
1.18000006792 4.0 0.0
1.15999998616 4.0 0.0
1.13999999119 4.0 0.0
1.12000007157 4.0 0.0
1.1 4.0 0.0
1.07999992843 4.0 0.0
1.06000000881 4.0 0.0
1.04000001384 4.0 0.0
1.01999993209 4.0 0.0
0.999999990948 4.0 0.0
0.98000003841 4.0 0.0
0.959999955072 4.0 0.0
0.939999952416 4.0 0.0
0.920000037214 4.0 0.0
0.899999984154 4.0 0.0
0.879999933427 4.0 0.0
0.860000014636 4.0 0.0
0.840000014246 4.0 0.0
0.819999932662 4.0 0.0
0.79999997166 4.0 0.0
0.780000036145 4.0 0.0
0.759999954604 4.0 0.0
0.73999995663 4.0 0.0
0.72000003758 4.0 0.0
0.699999970103 4.0 0.0
0.679999932361 4.0 0.0
0.660000016189 4.0 0.0
0.640000012962 4.0 0.0
0.61999993333 4.0 0.0
0.599999990406 4.0 0.0
0.58000003848 4.0 0.0
0.559999956964 4.0 0.0
0.539999957581 4.0 0.0
0.520000040329 4.0 0.0
0.499999993489 4.0 0.0
0.479999937647 4.0 0.0
0.460000018512 4.0 0.0
0.440000022972 4.0 0.0
0.419999940378 4.0 0.0
0.399999979352 4.0 0.0
0.380000048063 4.0 0.0
0.359999968347 4.0 0.0
0.339999967553 4.0 0.0
0.320000050328 4.0 0.0
0.299999987077 4.0 0.0
0.279999949312 4.0 0.0
0.260000032129 4.0 0.0
0.240000033752 4.0 0.0
0.219999953776 4.0 0.0
0.200000005737 4.0 0.0
0.180000060031 4.0 0.0
0.159999976465 4.0 0.0
0.139999980354 4.0 0.0
0.120000064926 4.0 0.0
0.100000018697 4.0 0.0
0.0799999610675 4.0 0.0
0.0600000440571 4.0 0.0
0.0400000402596 4.0 0.0
0.0199999611169 4.0 0.0
0.0 3.97976750927 0.0
0.0 3.9574882542 0.0
0.0 3.93295517223 0.0
0.0 3.90594026646 0.0
0.0 3.87619247056 0.0
0.0 3.84343531161 0.0
0.0 3.80736436348 0.0
0.0 3.76764438299 0.0
0.0 3.72390623714 0.0
0.0 3.67574343203 0.0
0.0 3.6227083524 0.0
0.0 3.56430812579 0.0
0.249757963562 3.75212589829 0.0
1.94999996706 3.74954522137 0.0
0.488710285893 3.75947702441 0.0
0.726520490699 3.7655965719 0.0
0.967283134849 3.7597072979 0.0
1.20619032017 3.75831098673 0.0
1.45842774915 3.76733088374 0.0
1.69012076678 3.7622332834 0.0
0.130754044069 3.86878249167 0.0
2.06924595593 3.86878249167 0.0
1.8299999918 3.84622455633 0.0
1.56816462369 3.85034872999 0.0
0.369913859351 3.84868157925 0.0
0.608733620231 3.84706187144 0.0
1.33069778866 3.84790908234 0.0
0.84323446252 3.84762979148 0.0
1.08873170817 3.84705870913 0.0
0.250539365135 3.87785524304 0.0
1.94967747948 3.87849609822 0.0
1.73218750075 3.8916046151 0.0
0.468661874066 3.89189322974 0.0
1.47574192429 3.89639134117 0.0
0.704258110321 3.8963912684 0.0
1.18331258449 3.8976320365 0.0
0.949999953744 3.89208018478 0.0
1.64795374468 3.91749779939 0.0
0.548928463645 3.91905583847 0.0
1.38619509199 3.91928594438 0.0
0.788926872841 3.91906062101 0.0
1.27071160784 3.91777932845 0.0
1.02999997296 3.91685174433 0.0
1.81733541416 3.69950870754 0.0
1.86999999106 3.91823503401 0.0
0.071252620538 3.93011431841 0.0
2.12874737946 3.93011431841 0.0
2.07400690796 3.74293885365 0.0
0.125993092043 3.74293885365 0.0
0.32995676804 3.92118147353 0.0
2.00999996712 3.92542383197 0.0
0.190000032884 3.92542383197 0.0
1.56698738743 3.72218882919 0.0
1.33000000474 3.72531695685 0.0
0.848014510843 3.71986098938 0.0
1.09024665585 3.72285801424 0.0
0.610276609989 3.72290563624 0.0
1.54999998543 3.92414142844 0.0
0.629999973146 3.92414137652 0.0
0.869999974031 3.92414141814 0.0
1.11000003579 3.92414141267 0.0
1.79030638642 3.92649353654 0.0
0.370434802927 3.72513294336 0.0
0.410903135411 3.92892991244 0.0
1.33000002597 3.93737911571 0.0
0.129927648482 3.94112154503 0.0
2.07007235152 3.94112154503 0.0
1.93000000928 3.93875927586 0.0
0.26999999072 3.93875927586 0.0
1.40966706061 3.83880068991 0.0
0.770332962441 3.83880062149 0.0
1.24904900022 3.84293377683 0.0
1.01033287484 3.83880060723 0.0
0.530342681434 3.83880307444 0.0
0.189895273961 3.63486992823 0.0
2.00989835291 3.62845703161 0.0
0.998888153878 3.61665036233 0.0
1.47894673873 3.61675180774 0.0
0.51733910646 3.62937665489 0.0
0.705112628302 3.618743723 0.0
1.66672137035 3.63168728155 0.0
1.18508242495 3.61871739348 0.0
1.71000003443 3.94408608591 0.0
0.489999965568 3.94463856597 0.0
1.44983363802 3.94422347836 0.0
0.729999997105 3.94465012565 0.0
1.21016639734 3.94422345842 0.0
0.928621800545 3.94440037102 0.0
2.00626203014 3.81543543551 0.0
0.193627962274 3.81528928332 0.0
1.66628164144 3.83559795895 0.0
1.75661718781 3.81065958113 0.0
1.61143779865 3.94859227761 0.0
0.991673865748 3.95161238438 0.0
0.0604617941233 3.86281264864 0.0
2.13953820588 3.86281264865 0.0
0.300965570716 3.8114148258 0.0
0.2970894797 3.66361086085 0.0
0.398842167194 3.60449226805 0.0
1.51000004877 3.95218393067 0.0
1.90135619383 3.81213273629 0.0
0.669405272842 3.95495208979 0.0
1.07142780558 3.94866325309 0.0
0.592085094025 3.94901139323 0.0
0.831051660929 3.94633985879 0.0
1.14940528892 3.9549521224 0.0
0.44409344258 3.82719938178 0.0
1.49646539728 3.82376850413 0.0
0.683434082651 3.82631713605 0.0
0.92337834777 3.8234861632 0.0
1.16343437877 3.82631615351 0.0
1.90749084149 3.65350700271 0.0
1.8278758005 3.95083911942 0.0
0.37243073327 3.95235211027 0.0
1.29345662549 3.60569899261 0.0
0.813407949226 3.60572380122 0.0
1.29317153636 3.96216077293 0.0
1.367704599 3.96055764734 0.0
1.97071235041 3.96038324024 0.0
0.22928764959 3.96038324024 0.0
2.10610581798 3.66047411138 0.0
0.0938941820177 3.66047411138 0.0
1.67000000105 3.95862953468 0.0
1.74869816704 3.96079301687 0.0
0.531976761939 3.96138655466 0.0
0.451361042387 3.96112774725 0.0
0.771976832233 3.96138887156 0.0
1.88843481911 3.95881554986 0.0
1.61277513709 3.78538823015 0.0
2.13311214501 3.79435403671 0.0
0.0668878549946 3.79435403671 0.0
1.76678797151 3.60286552601 0.0
0.311702446283 3.9611157379 0.0
1.02877762737 3.96159282031 0.0
1.40830122607 3.96143175203 0.0
1.25214210333 3.957355862 0.0
1.59476493393 3.9048774062 0.0
1.56950979124 3.96148017208 0.0
0.890017020275 3.96125792969 0.0
2.03089110475 3.96040268709 0.0
0.169108895255 3.96040268709 0.0
0.939722125942 3.68539157065 0.0
1.41686981874 3.69192854313 0.0
0.0426348006718 3.96101756902 0.0
2.15736519933 3.96101756902 0.0
1.36077308019 3.79177204211 0.0
0.817982383499 3.78962669257 0.0
1.05834720932 3.78780184893 0.0
0.578349529346 3.78781530011 0.0
1.77992711518 3.87652731382 0.0
0.417982153133 3.87594990465 0.0
1.84363633012 3.77741329286 0.0
1.52244994479 3.87704541475 0.0
0.657426528912 3.87734838249 0.0
1.13742651778 3.87734834025 0.0
0.898116026439 3.8800466833 0.0
1.56984259435 3.64465823131 0.0
1.08983016076 3.6446495206 0.0
0.609942357805 3.64483976081 0.0
1.29451769374 3.79627773068 0.0
0.0893439668432 3.96574839433 0.0
2.11065603316 3.96574839433 0.0
2.01422398896 3.86980625824 0.0
0.185776011038 3.86980625824 0.0
0.305957237756 3.87340573745 0.0
1.72977480551 3.68665973332 0.0
1.25418096296 3.69351129461 0.0
0.629999973146 3.96272981435 0.0
1.11000003579 3.96272983221 0.0
0.772975283819 3.69297597031 0.0
1.89089074715 3.86951346173 0.0
0.445448577516 3.69456159386 0.0
1.82621986864 3.89678318705 0.0
2.07135424223 3.81165410377 0.0
0.128645757768 3.81165410377 0.0
0.373320289473 3.89968791662 0.0
1.79000004014 3.96541718891 0.0
0.383302070088 3.78976392323 0.0
0.409457623385 3.96502881851 0.0
1.55531527123 3.78787141386 0.0
1.34861332978 3.89383287415 0.0
0.593245985735 3.89483466551 0.0
0.833245353375 3.89479604398 0.0
1.0732444554 3.8948349405 0.0
0.911896623122 3.59194725763 0.0
0.187580554011 3.70699710313 0.0
2.01241944599 3.70699710313 0.0
1.39201907571 3.59233063354 0.0
2.09635520798 3.90516200201 0.0
0.103644792024 3.90516200201 0.0
1.89086147526 3.72621461413 0.0
1.02102684616 3.70044819701 0.0
1.49813234221 3.70194667869 0.0
0.53965669049 3.70593418829 0.0
1.63719578665 3.69772473547 0.0
0.685447658936 3.70127585046 0.0
1.16541741817 3.70128744764 0.0
0.901649266036 3.76287226775 0.0
0.992351690321 3.90662993531 0.0
1.69131894868 3.90657323657 0.0
1.9699561555 3.91599371502 0.0
0.230043844497 3.91599371502 0.0
1.61980840676 3.85005402918 0.0
2.04685187594 3.90639759008 0.0
0.153148124058 3.90639759008 0.0
0.512139828486 3.90538520837 0.0
1.43057458921 3.90702644399 0.0
0.749149996349 3.90689574876 0.0
[...]
POINT_DATA 1163
VECTORS Displacement float
0.0 0.0 0
0.0 0.0 0
0.0110394500536 -0.0015365781111 0
-0.0100603218616 -0.00185151763118 0
0.0 0.0 0
0.0 0.0 0
0.0 0.0 0
0.0 0.0 0
0.0 0.0 0
0.0 0.0 0
0.0 0.0 0
0.0 0.0 0
0.0 0.0 0
0.0 0.0 0
0.0 0.0 0
0.0 0.0 0
0.0 0.0 0
0.0 0.0 0
0.0 0.0 0
0.0 0.0 0
0.0 0.0 0
0.0 0.0 0
0.0 0.0 0
0.0 0.0 0
0.0 0.0 0
0.0 0.0 0
0.0 0.0 0
0.0 0.0 0
0.0 0.0 0
0.0 0.0 0
0.0 0.0 0
0.0 0.0 0
0.0 0.0 0
0.0 0.0 0
0.0 0.0 0
0.00364857871482 -0.00268479952055 0
0.00644481009707 -0.00344222628944 0
0.00856203151593 -0.00345392961657 0
0.00987376294096 -0.00311869049978 0
0.0106460345519 -0.00270627312475 0
0.0110441241194 -0.00230469744915 0
0.0111715603651 -0.00199674426808 0
0.0112024676057 -0.00177334145298 0
0.0111561459261 -0.00163168350135 0
0.0110997238554 -0.00156778711679 0
0.0110597299479 -0.00154089003993 0
0.0110421186323 -0.00153548824325 0
0.0110405568501 -0.0015369729864 0
0.0110390407156 -0.00152336063704 0
0.0110242462773 -0.00149529197185 0
0.010988960076 -0.00145556514068 0
0.0109282199623 -0.00141188397 0
0.0108389361682 -0.00137795571831 0
0.0107146495673 -0.001351876631 0
0.0105609469214 -0.00136002946585 0
0.0103682295026 -0.0013941572107 0
0.010150532635 -0.00147928717822 0
0.00988531967976 -0.00161017127338 0
0.00958760491389 -0.00181252622955 0
0.0092651708684 -0.0020926386737 0
0.00889546432681 -0.00245041230913 0
0.00850715029293 -0.00291062974697 0
0.0080641703121 -0.00347115801323 0
0.00759356576744 -0.0041638486886 0
0.00708587178982 -0.00498101204973 0
0.00654948131297 -0.00596631807294 0
0.00594736114389 -0.00712337652959 0
0.00533501592166 -0.00848359553814 0
0.00472604047924 -0.010063184646 0
0.0040481400778 -0.011875516408 0
0.0033706784162 -0.0139811125988 0
0.00262856475092 -0.0164279972895 0
0.00196102458671 -0.0192344238275 0
0.00124710111648 -0.0224752946191 0
0.000535581167783 -0.0262539442739 0
-8.16089612232e-05 -0.0306418866269 0
-0.000417313679078 -0.0357646964966 0
-0.000460376980028 -0.0418135572168 0
-6.26761337723e-05 -0.0494888532421 0
0.0016443226794 -0.0593173954786 0
0.00342724219682 -0.0684505468057 0
0.00505721224821 -0.0772240537361 0
0.006540004373 -0.0853821537957 0
0.0078025296318 -0.093114911161 0
0.00886983263774 -0.100377890225 0
0.00959766272242 -0.107232133117 0
0.0101115826773 -0.113597814371 0
0.0103586679918 -0.119550234703 0
0.0103828042446 -0.125052237519 0
0.0101374926686 -0.130081690093 0
0.0097110412179 -0.134608065332 0
0.00906462766475 -0.138645341521 0
0.00820842982153 -0.142179454385 0
0.00719080301809 -0.145185672009 0
0.0060357803042 -0.147663018601 0
0.00474527091923 -0.14960255581 0
0.00332965582087 -0.150995299198 0
0.00181836012486 -0.15182606229 0
0.000150549761073 -0.152039187297 0
-0.0014469289393 -0.15183176109 0
-0.00294422126155 -0.151009349709 0
-0.00432836722122 -0.149628774749 0
-0.00560851160272 -0.147698348765 0
-0.00674610369728 -0.145230527292 0
-0.00773200994548 -0.142235696602 0
-0.00855110382778 -0.138720667907 0
-0.00922045263503 -0.134689485105 0
-0.00966989630494 -0.130166298987 0
-0.00987044865818 -0.12515887453 0
-0.00982969254508 -0.119682492113 0
-0.00953030116974 -0.1137305261 0
-0.00903750916624 -0.107380531396 0
-0.00822248924224 -0.100563948017 0
-0.00725857206889 -0.0932904594286 0
-0.00597232023776 -0.0855808740835 0
-0.00446057914204 -0.077451679489 0
-0.00277908972264 -0.0687291506508 0
-0.00100554356922 -0.0596123639573 0
0.000777670778144 -0.0498426344841 0
0.00144104112429 -0.0421360077378 0
0.00134287001613 -0.035850076298 0
0.00097354593855 -0.0307020588904 0
0.000433074466092 -0.0262935738908 0
-0.00019760563389 -0.0224879828101 0
-0.000858076216876 -0.0191855280305 0
-0.00147826411775 -0.0163227063038 0
-0.00215954176762 -0.0138314292117 0
-0.00279735513072 -0.0116658015131 0
-0.00341683510536 -0.00980271310299 0
-0.0039900377645 -0.00818227997985 0
-0.00455819762491 -0.00676461615985 0
-0.00507579988008 -0.00553768040467 0
-0.00559480608991 -0.00449318822826 0
-0.00605515823768 -0.00360128892165 0
-0.0064928572257 -0.00285826200961 0
-0.00687955367144 -0.00221992662629 0
-0.00725584111197 -0.00169436283723 0
-0.00761081066234 -0.00126878765093 0
-0.00792128011727 -0.000923917874729 0
-0.00821091967088 -0.000663707460761 0
-0.00847257804567 -0.000464312357681 0
-0.00871541056753 -0.000329675667982 0
-0.00892667464331 -0.000243941828682 0
-0.00912465595793 -0.000210558389765 0
-0.00929601091697 -0.000215061894411 0
-0.0094526279778 -0.000259245835082 0
-0.00959160710638 -0.000339154113617 0
-0.00970542614692 -0.000442044865793 0
-0.00980620026226 -0.000571137135666 0
-0.00988681785129 -0.000713738776154 0
-0.0099523450901 -0.00087452098704 0
-0.00999974333372 -0.00104000463555 0
-0.0100323514275 -0.00121123979532 0
-0.0100515820728 -0.00138110147993 0
-0.0100598273724 -0.00154528995147 0
-0.0100608720661 -0.00170213375265 0
-0.00991050019019 -0.00185097851263 0
-0.00975327961138 -0.00185418838568 0
-0.00959065796868 -0.0018690524102 0
-0.00941680324999 -0.00190393513311 0
-0.00921475261127 -0.00198013891966 0
-0.00894405149074 -0.00209853489123 0
-0.00859127509736 -0.00225801700169 0
-0.00805338277611 -0.00246048702349 0
-0.00727152491138 -0.00265067174424 0
-0.00614509154403 -0.00276087011774 0
-0.00452697869301 -0.00262329652624 0
-0.00251637950973 -0.00196875248033 0
-0.00901887040652 -0.000406692593877 0
0.0122320528835 -0.00186067531061 0
-0.0140573874787 -0.00472052281404 0
-0.0210395670206 -0.0267403508682 0
-0.0148337734934 -0.0598011927133 0
0.00417609536322 -0.0692865015463 0
0.0206498806311 -0.0476831596595 0
0.0193078343491 -0.0146096371043 0
-0.00926885466968 -0.000758264548877 0
0.0113918042794 -0.00129678669324 0
0.013913925556 -0.00517379616269 0
0.0211742194396 -0.0386136358183 0
-0.0107243542127 -0.00102135007218 0
-0.0160968049923 -0.0142269812295 0
0.0141744460923 -0.0865932810405 0
-0.0204786512487 -0.0594146647165 0
-0.00597254026352 -0.0961727552533 0
-0.00957899829753 -0.000116607470077 0
0.0117295646003 -0.00171894335262 0
0.0138383413326 -0.0123018468574 0
-0.0108131086796 -0.00374349389799 0
0.0191525968956 -0.0684922287978 0
-0.0161967392219 -0.0306865078877 0
0.00224454933123 -0.11497521813 0
-0.0151688590936 -0.0926515208206 0
0.013744600768 -0.0243775597702 0
-0.0101715019489 -0.00858081497591 0
0.01539806621 -0.0964582511088 0
-0.016583372151 -0.0555667973394 0
0.00905239923139 -0.115823315651 0
-0.00987381839702 -0.113190378249 0
0.0143431851759 -0.00499590410821 0
0.0109717674936 -0.00349642304277 0
-0.00957625912004 -0.00128151743206 0
0.0111119907319 -0.00146697356709 0
0.0106774259485 -0.0014342956044 0
-0.00787785838889 -0.000890793339963 0
-0.00939050210275 -0.000390727366851 0
0.0109538006022 -0.00126778091123 0
-0.00946887646824 -0.000304801281873 0
0.0207817941403 -0.0257818204634 0
0.0131601378794 -0.0528798001052 0
-0.0191733460317 -0.0372420459299 0
-0.00534975528659 -0.057946122429 0
-0.0174712376987 -0.0115254772882 0
0.0163462057078 -0.0497683922407 0
-0.0109400896936 -0.0174168756577 0
-0.0161275344336 -0.0813794977761 0
-0.00385157810146 -0.123157427029 0
0.0107265591535 -0.00741632744611 0
-0.0106809679185 -0.00144108627678 0
-0.00919966566704 -0.00174793877766 0
0.0122134676456 -0.113200781261 0
-0.00958517128343 -0.000752678639442 0
0.0109681286654 -0.00128452731941 0
0.010464006746 -0.00202537420862 0
-0.00930756028295 -9.833825671e-05 0
0.0188624565002 -0.0713152486718 0
-0.0211080382257 -0.0416470342714 0
0.00799677682282 -0.0935631921684 0
-0.0122205192072 -0.0865723811875 0
-0.0140209083397 -0.00725952589701 0
-0.00546847709144 -0.000537868801436 0
0.00758925401974 -0.00113538703687 0
-0.00818650531168 -0.0261354164333 0
0.0134348997519 -0.0187000930701 0
-0.0110385119567 -0.00412676820914 0
-0.0139562159118 -0.0114172649187 0
0.0143582885409 -0.00958641587785 0
0.00149794688106 -0.0294409085496 0
0.00958016783382 -0.0148411888191 0
-0.00838561166567 -0.00473454806378 0
0.0150012949983 -0.0854670926037 0
-0.0113036560586 -0.0384966331033 0
0.00422850680815 -0.130142947619 0
-0.0135993066801 -0.101956936931 0
0.0118408922713 -0.00134343035703 0
-0.00914623787276 -0.000372034135913 0
0.0189989269087 -0.0198189253824 0
0.0167541476232 -0.00967193926572 0
0.0107267718435 -0.0325784814313 0
-0.0111143979346 -0.117939538278 0
-0.00915974701462 -0.00144463277625 0
0.011293241559 -0.00162998790002 0
-0.0100858459578 -0.000412608232375 0
-0.00777497858318 -0.000767721279967 0
-0.0071745448203 -0.00155869766206 0
0.0136005698292 -0.066695260249 0
0.0132223489166 -0.00271455713369 0
-0.00775216832321 -0.0240550041844 0
-0.00657753614215 -0.12870983623 0
-0.00789986135889 -0.0126701348925 0
-0.0140538850229 -0.0734728321179 0
-0.000614454834483 -0.135323921807 0
-0.0122992071526 -0.0029340442101 0
0.0219452929749 -0.050930515224 0
-0.0195111889297 -0.0240654289859 0
-0.0178309753968 -0.070079609025 0
0.000546915341355 -0.0914087319265 0
0.0104043001746 -0.0022241460512 0
0.00936738870239 -0.00527209604988 0
-0.00870505846707 -0.000957728193132 0
0.00667238452754 -0.0242502855646 0
-0.0128033347361 -0.0154606462989 0
0.00963104528073 -0.127363722375 0
0.0126740637366 -0.111988341768 0
0.0102863308129 -0.0015472043808 0
-0.00937116227694 -0.000156978356597 0
0.00815166644302 -0.00150054649512 0
-0.00576397270149 -0.0010691916973 0
0.00798890706871 -0.0205432040476 0
0.00797700454722 -0.0107544714278 0
-0.00705174765543 -0.00732983146714 0
-0.00783277666855 -0.00305834429369 0
-0.0102660206126 -0.0535827516024 0
0.00956990397313 -0.00299424091727 0
0.0215211571309 -0.0253529200684 0
0.0111132311952 -0.00178377895037 0
-0.00851967414537 -0.00146703968679 0
0.0104363048065 -0.0044042402247 0
-0.00893407961589 -0.000282322245983 0
-0.00904463942136 -0.127553517995 0
0.0133225859792 -0.101669154642 0
0.0072141397145 -0.131271246796 0
0.0169852377018 -0.0357616241665 0
0.0100431002947 -0.04526711847 0
-0.0127745226266 -0.0954388125625 0
0.010690055774 -0.00127181454692 0
-0.0095830108855 -0.000458288386695 0
-0.0142987360893 -0.0391690920815 0
0.0165737981882 -0.0373729418361 0
-0.00977444095595 -0.0015241766328 0
0.0110496845983 -0.00152104735598 0
0.0162529644847 -0.0671676712007 0
-0.021429326874 -0.0445882941803 0
-0.0084859356318 -0.0757084894026 0
-0.0167654552681 -0.0104998541776 0
0.0137542759303 -0.00814459698833 0
-0.0107729040841 -0.00199540045866 0
0.014692180582 -0.00451978961918 0
0.0204965164242 -0.0526727484192 0
-0.0159472710829 -0.0213769085452 0
-0.00171789762998 -0.108059975508 0
-0.017880589504 -0.0787400468421 0
0.0163704949092 -0.0167649012509 0
-0.00429444005404 -0.0359262214867 0
-0.0141151064546 -0.00826092507531 0
0.0116238026696 -0.0756906330043 0
-0.00977077685586 -0.00111667253988 0
0.0109757457165 -0.0014082314589 0
0.0115452332574 -0.00125804583874 0
-0.00937756272533 -0.000347663199988 0
-0.00987265863484 -0.000256109013633 0
0.0163253324893 -0.00887941377303 0
0.0071481196353 -0.048739060239 0
-0.0063247241682 -0.0174974166427 0
-0.00369902695 -0.136742142162 0
-0.0191122287771 -0.0246437124069 0
0.0123816275996 -0.0028775606643 0
-0.0119311995274 -0.00296302857694 0
0.0120896678734 -0.00531677953701 0
0.0114187907705 -0.00136290792896 0
-0.00884012565536 -0.000817087765424 0
-0.00985830351482 -0.000966848992425 0
0.0080805165722 -0.00753005109139 0
-0.0113907422755 -0.00147444043547 0
-0.00809255681711 -0.00176524845107 0
0.022245244039 -0.0347833503899 0
0.0145081107918 -0.0970144083095 0
-0.012702376349 -0.0127466372265 0
-0.0186428440287 -0.0653490938011 0
-0.00697208084858 -0.110709928782 0
-0.00961399382014 -0.0174970633284 0
-0.00752059108355 -0.000549767199901 0
0.0104499268452 -0.00136024598736 0
0.00941566362152 -0.0181087777581 0
0.011202227847 -0.00136078898816 0
-0.00943818134811 -0.000985799099862 0
0.0130841644856 -0.00291544662129 0
-0.0100668687051 -0.0484708774204 0
0.0194578615093 -0.0310381497345 0
-0.0148720245603 -0.00661102290623 0
0.0189858606517 -0.0162597809843 0
-0.0186815262493 -0.0168670358042 0
0.000622439778218 -0.0527166790618 0
-0.0185217283276 -0.0526667661677 0
-0.0124371143619 -0.104397003964 0
0.013602116395 -0.0172345160013 0
0.0110339257411 -0.00149453749967 0
-0.00945212156791 -0.000131421235421 0
0.0198954877169 -0.0280040050343 0
0.0111800630419 -0.00123483002064 0
-0.00944312107128 -0.000559835789238 0
-0.0106563518176 -0.00599937466429 0
0.0175168343654 -0.0827397286729 0
-0.0167642225147 -0.0424347561435 0
0.00586535408379 -0.117369041237 0
0.0100718521794 -0.00197092403384 0
-0.00738395554206 -0.00155762653098 0
-0.0116651998481 -0.115078114686 0
-0.00940005150295 -0.00158389316774 0
0.0112024980669 -0.00161209158873 0
0.012174429201 -0.0806739809739 0
-0.0063822229171 -0.0311074753566 0
0.001960496389 -0.139341394777 0
-0.00956781105849 -0.000212931937256 0
-0.00995165467853 -0.000710872675695 0
0.0107221970331 -0.0991459703387 0
0.0123307875635 -0.00173052843981 0
0.011256779485 -0.121770414388 0
0.0167968428278 -0.00829834496742 0
-0.00339624018947 -0.0756260176665 0
-0.0188448609739 -0.0160509145572 0
0.0164942426999 -0.0727059209502 0
-0.0121287358594 -0.0298960438098 0
0.00168599144972 -0.126441352983 0
0.00689196048778 -0.026515182156 0
-0.0201352111445 -0.0555819757185 0
0.00746697625252 -0.00216074914737 0
0.00983181306132 -0.00209661566566 0
-0.00915906915805 -0.000132761932365 0
-0.00634461525999 -0.00956057767684 0
-0.0101821189218 -0.0643453944356 0
0.0105273620584 -0.0560733808654 0
-0.0121075772645 -0.0872323411494 0
0.00891031311373 -0.00386370144643 0
0.0108460893463 -0.00130683580416 0
-0.0097024466495 -0.000762141983097 0
-0.00865301935167 -0.000521940985735 0
0.0169929025543 -0.0133495824772 0
0.0104034727769 -0.00138234993875 0
-0.0094874535742 -0.000274561919967 0
-0.0126792211654 -0.00445845236912 0
0.0206828455866 -0.0631196964835 0
-0.020007173293 -0.0320843699706 0
0.00367780568382 -0.0956137413763 0
-0.0154111423501 -0.0820595491655 0
0.00621527492075 -0.00132162321301 0
-0.00393273054166 -0.000535918326814 0
0.011671082953 -0.0105140112281 0
-0.013133872451 -0.10593087617 0
-0.00963531086981 -0.0029334777214 0
0.0116396286781 -0.107765719634 0
-0.0200496448692 -0.0521195254762 0
-0.00992034954585 -0.0995993115471 0
-0.0133518278733 -0.00932989691538 0
-0.00300548203393 -0.000505794793507 0
0.00442941885381 -0.000814240964253 0
-0.00474987858276 -0.000835786824546 0
0.0112847512691 -0.00253647509769 0
-0.00955134333645 -0.000174641918682 0
0.0217174179637 -0.0402377090983 0
0.0169346320955 -0.0844658066444 0
-0.0160463414134 -0.0887835136915 0
-0.0123851086982 -0.00267373020579 0
0.0175967375182 -0.0592781463968 0
-0.0126149788017 -0.0230827275342 0
-0.00100420310704 -0.12183327629 0
0.0113745214806 -0.00147155143816 0
-0.00901221387277 -0.00107508741619 0
0.00679748173271 -0.0149690691606 0
0.0143637934505 -0.0421714102569 0
0.0114158416784 -0.00133424938793 0
-0.00854791940984 -0.00055619148786 0
-0.00703446913401 -0.00482622088277 0
0.0127100665988 -0.0888365715784 0
-0.00724903074637 -0.0376709033937 0
-0.0120171647454 -0.109384788123 0
0.00384819275163 -0.138193633636 0
0.00893770291807 -0.0627647954853 0
0.0170800850146 -0.0209911685027 0
0.0111977299467 -0.00190989934709 0
-0.00877952991519 -0.00173821736933 0
0.0168683751413 -0.0484406560079 0
0.00824117857879 -0.00579156563702 0
0.0155955879447 -0.00653679986502 0
-0.000793872348875 -0.0146475818167 0
0.0114436174741 -0.036074490612 0
-0.00800769829033 -0.0048565786051 0
-0.016149921942 -0.0274952417128 0
-0.00759631779457 -0.00055408932012 0
-0.0209256715076 -0.0324461445954 0
-0.010647434458 -0.000748051102633 0
0.0194849350067 -0.041726184726 0
-0.00637210863925 -0.0019137427355 0
-0.00324463316313 -0.00116393967453 0
0.00471716482993 -0.00155622844924 0
0.0110166048205 -0.00147574332233 0
-0.00981722612165 -0.00133683556609 0
0.0123368302947 -0.00385804717186 0
0.00298846810714 -0.0179146752408 0
-0.00995869673714 -0.00897848396806 0
-0.00957564197443 -0.00163842709035 0
0.01111932761 -0.0015727677963 0
-0.00794366512178 -0.00339944888296 0
0.0107772433997 -0.00186189557231 0
-0.00912063828681 -0.00138118573279 0
-0.00451603121839 -0.0176891177283 0
0.0101655051761 -0.0108706254508 0
-0.0151291201421 -0.00677324090309 0
-0.00997694073594 -0.000479206809692 0
0.019728223421 -0.0562954708536 0
-0.0124691929688 -0.0708525212191 0
0.00561463678899 -0.0333842534955 0
-0.0103133964722 -0.125179205025 0
0.0140145305747 -0.10362193737 0
0.0115929871452 -0.00125822075799 0
-0.00918666709086 -0.000533915585355 0
0.00836343935411 -0.00423508478478 0
0.00792780739854 -0.0764321279257 0
-0.00762661010554 -0.135774294255 0
-0.0216766506272 -0.0338693694337 0
-0.0212922949368 -0.0498355814612 0
-0.00958731299465 -0.0921423624615 0
-0.0147906785272 -0.00982957774605 0
0.0169199884775 -0.0778172625036 0
0.011853841454 -0.11080693937 0
0.00801633636405 -0.136113497619 0
0.0114747612969 -0.00334838538885 0
0.0110579188235 -0.00136256801229 0
-0.0095847818269 -0.00101083511966 0
-0.00527599026058 -0.0143626420763 0
-0.00489325031623 -0.0212566457299 0
-0.0053355677435 -0.137597862075 0
-0.00183860075117 -0.141510224195 0
-0.00697393779659 -0.000821472591992 0
0.00970988829327 -0.00136015570497 0
0.0187948484593 -0.0151587019008 0
0.0112007333302 -0.00148873444702 0
-0.00943056020108 -0.00128286135213 0
0.0133794243617 -0.00339743282012 0
0.00856928019018 -0.07069015783 0
-0.00848484145809 -0.0790261575269 0
-0.0202342586269 -0.0215378195922 0
0.000417941015483 -0.0761778532316 0
0.0079405036886 -0.00612101455439 0
0.00842076899186 -0.101731141831 0
-0.0081089177636 -0.00127955392235 0
-0.0098570583752 -0.0016497741785 0
0.0110441501482 -0.00153572858618 0
-0.018346229642 -0.0734529357583 0
-0.00433122309024 -0.111378316345 0
-0.0139492189714 -0.0167696445012 0
-0.00947970704562 -0.000203256065181 0
0.0136219622587 -0.00305534990286 0
0.0117301884831 -0.00141885715634 0
0.0109587842903 -0.00123939802427 0
-0.00952642724553 -0.000545129861525 0
0.0106221012985 -0.00448552599421 0
0.00687506933595 -0.0090117238307 0
-0.00745922055043 -0.00238169375842 0
0.0202892776727 -0.0196829112698 0
0.0218640734621 -0.0454140566379 0
-0.0177939294185 -0.0186625409321 0
-0.0193535403422 -0.0661240352834 0
-0.00287104453586 -0.0942476633932 0
-0.0114105916736 -0.00181559681715 0
-0.0133886056173 -0.0924655098285 0
-0.0135753620233 -0.00442022690728 0
0.0191988932028 -0.0741559261274 0
-0.0124262064376 -0.00590124410429 0
-0.0196174879825 -0.0400297092521 0
0.0112786062185 -0.00132164945528 0
0.0211097467529 -0.0545457506822 0
-0.00945682519819 -0.000228781772635 0
-0.0210030397031 -0.0288097444606 0
-0.0157039655943 -0.0702753440306 0
0.00381148121536 -0.0831236143575 0
0.0144082674097 -0.0303682138896 0
0.0171833320526 -0.0269560503251 0
-0.0100250382039 -0.0108993649872 0
-0.0163984355682 -0.0647089384029 0
-0.00776377506061 -0.118068648255 0
0.0113321483775 -0.121421138982 0
0.0100327009563 -0.12969047936 0
0.0209357644743 -0.0590425603764 0
-0.0180639308579 -0.0268505651089 0
0.00107234990726 -0.104312228098 0
-0.0168147236701 -0.0822506357635 0
0.00975524226443 -0.0018529104594 0
-0.00922682767196 -0.000151999712076 0
-0.00923074228887 -0.000678789181214 0
0.0203657081297 -0.0185209446852 0
0.0154876073479 -0.0912967486968 0
0.00632077520123 -0.125357652297 0
0.0151970693726 -0.0106877808819 0
0.00924708806245 -0.00252554969276 0
-0.00522426725804 -0.0260516173575 0
0.000180319083692 -0.141259786649 0
0.01217648467 -0.00156416980614 0
-0.00920558247151 -0.000309791492368 0
-0.0101505094184 -0.0621960701138 0
-0.00921954994593 -0.00167676403812 0
0.0112558715146 -0.00171306309211 0
-0.0102908085248 -0.000560955164714 0
-0.0161424616985 -0.00832173595033 0
-0.00894320419117 -0.000210629861532 0
-0.0115806151591 -0.00309816839406 0
0.0111644158291 -0.00177677003446 0
-0.00948163306279 -8.36916637078e-05 0
0.0155189936988 -0.0170804545239 0
-0.00290978081207 -0.000377710823896 0
0.00434171705841 -0.000737982082414 0
-0.00976753656023 -0.000170334742839 0
-0.00617716937142 -0.0145150255556 0