# vtk DataFile Version 2.0
Generated with Solid Solver
ASCII
DATASET UNSTRUCTURED_GRID
POINTS 1163 float 
0.0 3.5 0.0
2.2 3.5 0.0
2.2 4.0 0.0
0.0 4.0 0.0
0.0687499999999 3.5 0.0
0.1375 3.5 0.0
0.20625 3.5 0.0
0.275 3.5 0.0
0.343749999999 3.5 0.0
0.412499999999 3.5 0.0
0.481249999999 3.5 0.0
0.549999999999 3.5 0.0
0.618749999998 3.5 0.0
0.687499999998 3.5 0.0
0.756249999998 3.5 0.0
0.824999999998 3.5 0.0
0.893749999998 3.5 0.0
0.962499999997 3.5 0.0
1.03125 3.5 0.0
1.1 3.5 0.0
1.16875 3.5 0.0
1.2375 3.5 0.0
1.30625 3.5 0.0
1.375 3.5 0.0
1.44375 3.5 0.0
1.5125 3.5 0.0
1.58125 3.5 0.0
1.65 3.5 0.0
1.71875 3.5 0.0
1.7875 3.5 0.0
1.85625 3.5 0.0
1.925 3.5 0.0
1.99375 3.5 0.0
2.0625 3.5 0.0
2.13125 3.5 0.0
2.2 3.56430812579 0.0
2.2 3.6227083524 0.0
2.2 3.67574343203 0.0
2.2 3.72390623714 0.0
2.2 3.76764438299 0.0
2.2 3.80736436348 0.0
2.2 3.84343531161 0.0
2.2 3.87619247056 0.0
2.2 3.90594026646 0.0
2.2 3.93295517223 0.0
2.2 3.9574882542 0.0
2.2 3.97976750927 0.0
2.18000003888 4.0 0.0
2.15999995974 4.0 0.0
2.13999995594 4.0 0.0
2.12000003893 4.0 0.0
2.0999999813 4.0 0.0
2.07999993507 4.0 0.0
2.06000001965 4.0 0.0
2.04000002354 4.0 0.0
2.01999993997 4.0 0.0
1.99999999426 4.0 0.0
1.98000004623 4.0 0.0
1.95999996625 4.0 0.0
1.93999996787 4.0 0.0
1.92000005069 4.0 0.0
1.90000001292 4.0 0.0
1.87999994967 4.0 0.0
1.86000003245 4.0 0.0
1.84000003166 4.0 0.0
1.81999995194 4.0 0.0
1.80000002065 4.0 0.0
1.78000005962 4.0 0.0
1.75999997703 4.0 0.0
1.73999998149 4.0 0.0
1.72000006236 4.0 0.0
1.70000000651 4.0 0.0
1.67999995967 4.0 0.0
1.66000004242 4.0 0.0
1.64000004304 4.0 0.0
1.61999996152 4.0 0.0
1.6000000096 4.0 0.0
1.58000006667 4.0 0.0
1.55999998704 4.0 0.0
1.53999998381 4.0 0.0
1.52000006764 4.0 0.0
1.5000000299 4.0 0.0
1.47999996242 4.0 0.0
1.46000004337 4.0 0.0
1.4400000454 4.0 0.0
1.41999996386 4.0 0.0
1.40000002834 4.0 0.0
1.38000006734 4.0 0.0
1.35999998576 4.0 0.0
1.33999998537 4.0 0.0
1.32000006658 4.0 0.0
1.30000001585 4.0 0.0
1.27999996279 4.0 0.0
1.26000004759 4.0 0.0
1.24000004493 4.0 0.0
1.2199999616 4.0 0.0
1.20000000906 4.0 0.0
1.18000006792 4.0 0.0
1.15999998616 4.0 0.0
1.13999999119 4.0 0.0
1.12000007157 4.0 0.0
1.1 4.0 0.0
1.07999992843 4.0 0.0
1.06000000881 4.0 0.0
1.04000001384 4.0 0.0
1.01999993209 4.0 0.0
0.999999990948 4.0 0.0
0.98000003841 4.0 0.0
0.959999955072 4.0 0.0
0.939999952416 4.0 0.0
0.920000037214 4.0 0.0
0.899999984154 4.0 0.0
0.879999933427 4.0 0.0
0.860000014636 4.0 0.0
0.840000014246 4.0 0.0
0.819999932662 4.0 0.0
0.79999997166 4.0 0.0
0.780000036145 4.0 0.0
0.759999954604 4.0 0.0
0.73999995663 4.0 0.0
0.72000003758 4.0 0.0
0.699999970103 4.0 0.0
0.679999932361 4.0 0.0
0.660000016189 4.0 0.0
0.640000012962 4.0 0.0
0.61999993333 4.0 0.0
0.599999990406 4.0 0.0
0.58000003848 4.0 0.0
0.559999956964 4.0 0.0
0.539999957581 4.0 0.0
0.520000040329 4.0 0.0
0.499999993489 4.0 0.0
0.479999937647 4.0 0.0
0.460000018512 4.0 0.0
0.440000022972 4.0 0.0
0.419999940378 4.0 0.0
0.399999979352 4.0 0.0
0.380000048063 4.0 0.0
0.359999968347 4.0 0.0
0.339999967553 4.0 0.0
0.320000050328 4.0 0.0
0.299999987077 4.0 0.0
0.279999949312 4.0 0.0
0.260000032129 4.0 0.0
0.240000033752 4.0 0.0
0.219999953776 4.0 0.0
0.200000005737 4.0 0.0
0.180000060031 4.0 0.0
0.159999976465 4.0 0.0
0.139999980354 4.0 0.0
0.120000064926 4.0 0.0
0.100000018697 4.0 0.0
0.0799999610675 4.0 0.0
0.0600000440571 4.0 0.0
0.0400000402596 4.0 0.0
0.0199999611169 4.0 0.0
0.0 3.97976750927 0.0
0.0 3.9574882542 0.0
0.0 3.93295517223 0.0
0.0 3.90594026646 0.0
0.0 3.87619247056 0.0
0.0 3.84343531161 0.0
0.0 3.80736436348 0.0
0.0 3.76764438299 0.0
0.0 3.72390623714 0.0
0.0 3.67574343203 0.0
0.0 3.6227083524 0.0
0.0 3.56430812579 0.0
0.249757963562 3.75212589829 0.0
1.94999996706 3.74954522137 0.0
0.488710285893 3.75947702441 0.0
0.726520490699 3.7655965719 0.0
0.967283134849 3.7597072979 0.0
1.20619032017 3.75831098673 0.0
1.45842774915 3.76733088374 0.0
1.69012076678 3.7622332834 0.0
0.130754044069 3.86878249167 0.0
2.06924595593 3.86878249167 0.0
1.8299999918 3.84622455633 0.0
1.56816462369 3.85034872999 0.0
0.369913859351 3.84868157925 0.0
0.608733620231 3.84706187144 0.0
1.33069778866 3.84790908234 0.0
0.84323446252 3.84762979148 0.0
1.08873170817 3.84705870913 0.0
0.250539365135 3.87785524304 0.0
1.94967747948 3.87849609822 0.0
1.73218750075 3.8916046151 0.0
0.468661874066 3.89189322974 0.0
1.47574192429 3.89639134117 0.0
0.704258110321 3.8963912684 0.0
1.18331258449 3.8976320365 0.0
0.949999953744 3.89208018478 0.0
1.64795374468 3.91749779939 0.0
0.548928463645 3.91905583847 0.0
1.38619509199 3.91928594438 0.0
0.788926872841 3.91906062101 0.0
1.27071160784 3.91777932845 0.0
1.02999997296 3.91685174433 0.0
1.81733541416 3.69950870754 0.0
1.86999999106 3.91823503401 0.0
0.071252620538 3.93011431841 0.0
2.12874737946 3.93011431841 0.0
2.07400690796 3.74293885365 0.0
0.125993092043 3.74293885365 0.0
0.32995676804 3.92118147353 0.0
2.00999996712 3.92542383197 0.0
0.190000032884 3.92542383197 0.0
1.56698738743 3.72218882919 0.0
1.33000000474 3.72531695685 0.0
0.848014510843 3.71986098938 0.0
1.09024665585 3.72285801424 0.0
0.610276609989 3.72290563624 0.0
1.54999998543 3.92414142844 0.0
0.629999973146 3.92414137652 0.0
0.869999974031 3.92414141814 0.0
1.11000003579 3.92414141267 0.0
1.79030638642 3.92649353654 0.0
0.370434802927 3.72513294336 0.0
0.410903135411 3.92892991244 0.0
1.33000002597 3.93737911571 0.0
0.129927648482 3.94112154503 0.0
2.07007235152 3.94112154503 0.0
1.93000000928 3.93875927586 0.0
0.26999999072 3.93875927586 0.0
1.40966706061 3.83880068991 0.0
0.770332962441 3.83880062149 0.0
1.24904900022 3.84293377683 0.0
1.01033287484 3.83880060723 0.0
0.530342681434 3.83880307444 0.0
0.189895273961 3.63486992823 0.0
2.00989835291 3.62845703161 0.0
0.998888153878 3.61665036233 0.0
1.47894673873 3.61675180774 0.0
0.51733910646 3.62937665489 0.0
0.705112628302 3.618743723 0.0
1.66672137035 3.63168728155 0.0
1.18508242495 3.61871739348 0.0
1.71000003443 3.94408608591 0.0
0.489999965568 3.94463856597 0.0
1.44983363802 3.94422347836 0.0
0.729999997105 3.94465012565 0.0
1.21016639734 3.94422345842 0.0
0.928621800545 3.94440037102 0.0
2.00626203014 3.81543543551 0.0
0.193627962274 3.81528928332 0.0
1.66628164144 3.83559795895 0.0
1.75661718781 3.81065958113 0.0
1.61143779865 3.94859227761 0.0
0.991673865748 3.95161238438 0.0
0.0604617941233 3.86281264864 0.0
2.13953820588 3.86281264865 0.0
0.300965570716 3.8114148258 0.0
0.2970894797 3.66361086085 0.0
0.398842167194 3.60449226805 0.0
1.51000004877 3.95218393067 0.0
1.90135619383 3.81213273629 0.0
0.669405272842 3.95495208979 0.0
1.07142780558 3.94866325309 0.0
0.592085094025 3.94901139323 0.0
0.831051660929 3.94633985879 0.0
1.14940528892 3.9549521224 0.0
0.44409344258 3.82719938178 0.0
1.49646539728 3.82376850413 0.0
0.683434082651 3.82631713605 0.0
0.92337834777 3.8234861632 0.0
1.16343437877 3.82631615351 0.0
1.90749084149 3.65350700271 0.0
1.8278758005 3.95083911942 0.0
0.37243073327 3.95235211027 0.0
1.29345662549 3.60569899261 0.0
0.813407949226 3.60572380122 0.0
1.29317153636 3.96216077293 0.0
1.367704599 3.96055764734 0.0
1.97071235041 3.96038324024 0.0
0.22928764959 3.96038324024 0.0
2.10610581798 3.66047411138 0.0
0.0938941820177 3.66047411138 0.0
1.67000000105 3.95862953468 0.0
1.74869816704 3.96079301687 0.0
0.531976761939 3.96138655466 0.0
0.451361042387 3.96112774725 0.0
0.771976832233 3.96138887156 0.0
1.88843481911 3.95881554986 0.0
1.61277513709 3.78538823015 0.0
2.13311214501 3.79435403671 0.0
0.0668878549946 3.79435403671 0.0
1.76678797151 3.60286552601 0.0
0.311702446283 3.9611157379 0.0
1.02877762737 3.96159282031 0.0
1.40830122607 3.96143175203 0.0
1.25214210333 3.957355862 0.0
1.59476493393 3.9048774062 0.0
1.56950979124 3.96148017208 0.0
0.890017020275 3.96125792969 0.0
2.03089110475 3.96040268709 0.0
0.169108895255 3.96040268709 0.0
0.939722125942 3.68539157065 0.0
1.41686981874 3.69192854313 0.0
0.0426348006718 3.96101756902 0.0
2.15736519933 3.96101756902 0.0
1.36077308019 3.79177204211 0.0
0.817982383499 3.78962669257 0.0
1.05834720932 3.78780184893 0.0
0.578349529346 3.78781530011 0.0
1.77992711518 3.87652731382 0.0
0.417982153133 3.87594990465 0.0
1.84363633012 3.77741329286 0.0
1.52244994479 3.87704541475 0.0
0.657426528912 3.87734838249 0.0
1.13742651778 3.87734834025 0.0
0.898116026439 3.8800466833 0.0
1.56984259435 3.64465823131 0.0
1.08983016076 3.6446495206 0.0
0.609942357805 3.64483976081 0.0
1.29451769374 3.79627773068 0.0
0.0893439668432 3.96574839433 0.0
2.11065603316 3.96574839433 0.0
2.01422398896 3.86980625824 0.0
0.185776011038 3.86980625824 0.0
0.305957237756 3.87340573745 0.0
1.72977480551 3.68665973332 0.0
1.25418096296 3.69351129461 0.0
0.629999973146 3.96272981435 0.0
1.11000003579 3.96272983221 0.0
0.772975283819 3.69297597031 0.0
1.89089074715 3.86951346173 0.0
0.445448577516 3.69456159386 0.0
1.82621986864 3.89678318705 0.0
2.07135424223 3.81165410377 0.0
0.128645757768 3.81165410377 0.0
0.373320289473 3.89968791662 0.0
1.79000004014 3.96541718891 0.0
0.383302070088 3.78976392323 0.0
0.409457623385 3.96502881851 0.0
1.55531527123 3.78787141386 0.0
1.34861332978 3.89383287415 0.0
0.593245985735 3.89483466551 0.0
0.833245353375 3.89479604398 0.0
1.0732444554 3.8948349405 0.0
0.911896623122 3.59194725763 0.0
0.187580554011 3.70699710313 0.0
2.01241944599 3.70699710313 0.0
1.39201907571 3.59233063354 0.0
2.09635520798 3.90516200201 0.0
0.103644792024 3.90516200201 0.0
1.89086147526 3.72621461413 0.0
1.02102684616 3.70044819701 0.0
1.49813234221 3.70194667869 0.0
0.53965669049 3.70593418829 0.0
1.63719578665 3.69772473547 0.0
0.685447658936 3.70127585046 0.0
1.16541741817 3.70128744764 0.0
0.901649266036 3.76287226775 0.0
0.992351690321 3.90662993531 0.0
1.69131894868 3.90657323657 0.0
1.9699561555 3.91599371502 0.0
0.230043844497 3.91599371502 0.0
1.61980840676 3.85005402918 0.0
2.04685187594 3.90639759008 0.0
0.153148124058 3.90639759008 0.0
0.512139828486 3.90538520837 0.0
1.43057458921 3.90702644399 0.0
0.749149996349 3.90689574876 0.0
[...]
POINT_DATA 1163
VECTORS Displacement float
0.0 0.0 0
0.0 0.0 0
0.0117333350661 -0.00183275411833 0
-0.00822655897484 -0.00201281931539 0
0.0 0.0 0
0.0 0.0 0
0.0 0.0 0
0.0 0.0 0
0.0 0.0 0
0.0 0.0 0
0.0 0.0 0
0.0 0.0 0
0.0 0.0 0
0.0 0.0 0
0.0 0.0 0
0.0 0.0 0
0.0 0.0 0
0.0 0.0 0
0.0 0.0 0
0.0 0.0 0
0.0 0.0 0
0.0 0.0 0
0.0 0.0 0
0.0 0.0 0
0.0 0.0 0
0.0 0.0 0
0.0 0.0 0
0.0 0.0 0
0.0 0.0 0
0.0 0.0 0
0.0 0.0 0
0.0 0.0 0
0.0 0.0 0
0.0 0.0 0
0.0 0.0 0
0.00616058704349 -0.00449359909252 0
0.0106090682389 -0.005709040952 0
0.0137365240484 -0.00565209818824 0
0.0153766773709 -0.00498772942474 0
0.0160432934157 -0.00419595066191 0
0.0160391080281 -0.00341308494228 0
0.0155440544491 -0.00280138184892 0
0.0149065158211 -0.00234574481673 0
0.0141512795097 -0.00204748375507 0
0.0134207593954 -0.00190708007538 0
0.0127691083559 -0.0018455371868 0
0.012211855009 -0.00183089787712 0
0.0117352466723 -0.00230013691987 0
0.0117294369055 -0.00273803096179 0
0.0116940115316 -0.00314911798574 0
0.0116134041946 -0.00354178176949 0
0.0114792216818 -0.00393590872417 0
0.0112875527485 -0.0043607045467 0
0.0110234777412 -0.00481766709436 0
0.0107054104308 -0.00535989617658 0
0.0103104020089 -0.00597952869771 0
0.00987590387411 -0.00672335092812 0
0.00935448491123 -0.00758680314205 0
0.00877829715709 -0.00863191800338 0
0.00817685687106 -0.00986483522541 0
0.00749800358223 -0.0113086533039 0
0.0068216565716 -0.0129990507562 0
0.00606754000206 -0.014959136657 0
0.00528691857115 -0.0172568913887 0
0.00451419215442 -0.0199016955107 0
0.00374254099338 -0.0229947247086 0
0.00291898374435 -0.0265868475245 0
0.00224074354403 -0.0308002591672 0
0.00175235699237 -0.0356540292844 0
0.00135980741066 -0.0415929395606 0
0.00154411201349 -0.0487171544295 0
0.00312708820472 -0.0586630102409 0
0.00480507831227 -0.0678817380432 0
0.00650748749029 -0.0767018278719 0
0.00793753882552 -0.0849056022868 0
0.00919009296466 -0.0926838863613 0
0.0100955309909 -0.100031452584 0
0.0107638572102 -0.106926254716 0
0.0112994714049 -0.113335922222 0
0.0115308913718 -0.119290269363 0
0.0115222395739 -0.124799430858 0
0.0112587151485 -0.129873137071 0
0.0107875692329 -0.134440490499 0
0.0101028819361 -0.138511508618 0
0.00924206479408 -0.142068633998 0
0.00821066344441 -0.145099540166 0
0.00701650467828 -0.147604444353 0
0.00570546062538 -0.149568078083 0
0.00427745669624 -0.150985060789 0
0.00273264651321 -0.15184574822 0
0.000993760166618 -0.15211281701 0
-0.000577421539799 -0.151859503698 0
-0.00207008712331 -0.151074954356 0
-0.00346439482165 -0.149715977189 0
-0.00476807722902 -0.14780377212 0
-0.00592497402689 -0.145353313264 0
-0.00693734486193 -0.142373169065 0
-0.0077869252344 -0.138866916762 0
-0.00842977978999 -0.134854400686 0
-0.00885967291575 -0.130351549717 0
-0.00907618693409 -0.125364154323 0
-0.00907249016675 -0.119900959732 0
-0.00876911711113 -0.113979270918 0
-0.00824847568751 -0.107606471766 0
-0.00751096765261 -0.100803535426 0
-0.00642434481103 -0.0935769246934 0
-0.0051908339528 -0.0858770016912 0
-0.00377498191836 -0.0777369862084 0
-0.00205862160029 -0.0690638547413 0
-0.000164321610064 -0.0600171138538 0
0.00161734167606 -0.050285868979 0
0.00231476167915 -0.0424308956697 0
0.00223911618699 -0.036132068686 0
0.00199630232942 -0.030901138064 0
0.00148049929857 -0.0263973953804 0
0.000899440372682 -0.0225657068379 0
0.000284196564077 -0.0192466984319 0
-0.000362026782325 -0.016342544832 0
-0.000993779768824 -0.0138325831828 0
-0.00156724199934 -0.0116377704801 0
-0.00216320765551 -0.00972736734149 0
-0.00271519772387 -0.00806982536459 0
-0.00323784530394 -0.0066396026699 0
-0.00373209313718 -0.00539446844118 0
-0.00418947508192 -0.00431840911481 0
-0.00459567763046 -0.00338487585292 0
-0.00499147228394 -0.00259094707402 0
-0.00534120951546 -0.00191310537415 0
-0.00566743430274 -0.00135231618542 0
-0.00595079247999 -0.000877524312623 0
-0.00621600470706 -0.000482390245053 0
-0.00644674808337 -0.000155061841925 0
-0.00666517088556 0.000101938355109 0
-0.00685128356753 0.000306585591283 0
-0.00702021958867 0.000453392725042 0
-0.00716329589039 0.000565259324823 0
-0.00729796432747 0.000634786997982 0
-0.00742032730138 0.000668936552493 0
-0.00752349973093 0.000674416728149 0
-0.00761760791064 0.000649042765687 0
-0.00770032828494 0.000601984626418 0
-0.00777622602178 0.000531705086166 0
-0.00784120709925 0.000443381135409 0
-0.00790279244527 0.000335735796082 0
-0.00795611964861 0.000212720366546 0
-0.0080061937985 7.406836243e-05 0
-0.00805150660218 -7.98290231614e-05 0
-0.00808935312008 -0.000244440500989 0
-0.00812450208445 -0.000420519692016 0
-0.00815349027437 -0.000604914328245 0
-0.00817864632883 -0.000798401320316 0
-0.0081976462021 -0.000996918384425 0
-0.00821184439729 -0.00120007978192 0
-0.00822104182979 -0.00140528888436 0
-0.00822549093924 -0.00160999143742 0
-0.00822665417608 -0.00181287729559 0
-0.00802508043701 -0.00201273456161 0
-0.00780611118527 -0.00201499296033 0
-0.00756763266906 -0.0020224094317 0
-0.00730306680499 -0.00203834516776 0
-0.00700192374829 -0.00206960852079 0
-0.00664121043867 -0.00211343760805 0
-0.00621365811652 -0.00216466052698 0
-0.00566598282337 -0.0022195119458 0
-0.00497417531098 -0.00224201136988 0
-0.00408629458879 -0.00218240691435 0
-0.00294179242927 -0.00195158221662 0
-0.00160908212046 -0.00138840583042 0
-0.00605485937498 4.50160088369e-05 0
0.0184834557826 -0.00764173478183 0
-0.0091955520291 -0.000526152317372 0
-0.0157660448505 -0.00931055046627 0
-0.0205278666844 -0.0382739244379 0
-0.00848472269585 -0.0662713600141 0
0.0126268853771 -0.0668175658185 0
0.0231993125078 -0.035551892893 0
-0.00697820616526 -0.000681287404684 0
0.0154445043327 -0.00440251974615 0
0.0202579688095 -0.0199775734156 0
0.0199750461577 -0.0741285173035 0
-0.00774284704523 0.000574850552777 0
-0.0108278336211 -0.00290545370363 0
0.00213272771345 -0.0984034039856 0
-0.0178742347576 -0.0250380743529 0
-0.0165366803913 -0.0770315683251 0
-0.00726355811946 0.000273226706373 0
0.0160299046547 -0.00874474911295 0
0.0205115831618 -0.0407520855599 0
-0.00819289874332 0.000259616918798 0
0.0136339237797 -0.102946940568 0
-0.0105538917711 -0.00818187526013 0
-0.00980910225849 -0.106359675866 0
-0.0180511539121 -0.0529565998971 0
0.0192490594133 -0.0682884255797 0
-0.00803831356016 -0.000934413071751 0
0.00667927718527 -0.120392639675 0
-0.0104630171931 -0.0173755004774 0
-0.00290717830514 -0.120985339231 0
-0.0158964006264 -0.0800636421972 0
0.0200526699416 -0.0147625610946 0
0.0144254235343 -0.0156180024666 0
-0.00754322707047 -0.00128589130069 0
0.0135185939115 -0.00335063680027 0
0.0164042918349 -0.00408183817998 0
-0.00536772745904 -0.000720153972298 0
-0.00757725801325 0.000660600235956 0
0.0134287950419 -0.00602190034836 0
-0.00750498922599 -0.000138805063204 0
0.0183201720319 -0.0447246373674 0
0.00177321174951 -0.0597900731389 0
-0.0188639897405 -0.0185710471955 0
-0.0154625397464 -0.0469930992429 0
-0.0118647233669 -0.00317440669259 0
0.0165839136117 -0.0965852802359 0
-0.00815805797471 -0.00361679810373 0
-0.0125062724078 -0.0329344525339 0
-0.0131439995924 -0.101637008537 0
0.0151653156077 -0.0281721328907 0
-0.00688911936587 5.89260688071e-05 0
-0.00764240863614 0.000663413018865 0
0.00199291334753 -0.129071581629 0
-0.00763531762303 -0.000686967914224 0
0.0130012342991 -0.00441816763805 0
0.0124695813804 -0.0101584560781 0
-0.00759426908613 0.000422250758802 0
0.009027064686 -0.0921785799752 0
-0.0156356252852 -0.0144305746403 0
-0.00509291373241 -0.0948025614866 0
-0.0197394020407 -0.0594860135516 0
-0.00958442603858 -0.000808532498204 0
-0.00342448703872 -0.000283471235048 0
0.0121096300485 -0.00344432265038 0
-0.012892499041 -0.0186521331876 0
0.00877642416724 -0.0261180961297 0
-0.00707226600793 -0.0011395698383 0
-0.010744139815 -0.0047374830618 0
0.0155528221537 -0.0192470760814 0
-0.00676875936088 -0.0274795991821 0
0.0154842792394 -0.0509039654405 0
-0.00743118138935 8.82451630608e-05 0
0.0108987147406 -0.121880300158 0
-0.00713886838006 -0.0104252602601 0
-0.00719673873971 -0.124879672026 0
-0.0120669409852 -0.0514255355618 0
0.0172431971794 -0.00592510445442 0
-0.00654676067587 -0.000168725741821 0
0.0233033125587 -0.0504070305087 0
0.0232038582405 -0.029799302197 0
0.0160481698136 -0.0855499361562 0
-0.0125494591738 -0.0748113427671 0
-0.00687599296987 -0.00141277518052 0
0.0153769484772 -0.0033970635505 0
-0.00707171757038 0.000362050300271 0
-0.00486655013095 -8.84980010267e-05 0
-0.00436156188795 -0.000392383089761 0
0.0136981646451 -0.113367064808 0
0.0194316863643 -0.0117154015254 0
-0.00641777079049 -0.00574290890608 0
-0.0128653481034 -0.0987956017309 0
-0.0070494753693 -0.00213122646553 0
-0.00812435592128 -0.0244972377192 0
-0.0102874706559 -0.118657936036 0
-0.00849845725622 0.000238717313359 0
0.0159010607944 -0.0787703701357 0
-0.0132981038361 -0.00671174005393 0
-0.0206525319657 -0.0387718263417 0
-0.0120105596393 -0.0823434704129 0
0.0156135297935 -0.00707940880121 0
0.0112971888934 -0.02141557314 0
-0.00754424426387 0.000726770938486 0
-0.000937292509183 -0.0259047847172 0
-0.0119241789982 -0.00798281142833 0
-0.000997794252101 -0.13764667 0
0.00495895983842 -0.136037961749 0
0.0113377312061 -0.00777695956329 0
-0.00772817573496 0.000162759046404 0
0.0131278554029 -0.00329078501253 0
-0.00373843361269 -0.00084758134108 0
0.0143150100574 -0.0671910254676 0
0.0111273621992 -0.0387166083162 0
-0.00693458399741 -0.000584682882577 0
-0.00730199876904 0.000453671847826 0
-0.00543659602557 -0.0150661841755 0
0.0105038482314 -0.0137471252552 0
0.0219992984954 -0.0518079683137 0
0.0164136994875 -0.00375822181641 0
-0.00606596789601 -0.00134141786235 0
0.0134416078015 -0.010128484811 0
-0.00762992774609 0.000609615390193 0
-0.011836265816 -0.089121528463 0
0.00794549705681 -0.133019996412 0
-0.00416412590078 -0.133694309826 0
0.0191763521657 -0.0808315373398 0
0.0146028376454 -0.101044482122 0
-0.00750282530173 -0.039021290307 0
0.0120092333084 -0.00543270341374 0
-0.00777982625734 -0.000322273811388 0
-0.0181480767403 -0.0244726256972 0
0.00801464539578 -0.0480175357694 0
-0.0078398152606 -0.00158265212162 0
0.0126676612497 -0.00279349582895 0
0.00471452902826 -0.0796933172006 0
-0.0186681433445 -0.019018789703 0
-0.0183046624241 -0.0578151554711 0
-0.0111426570341 -0.00211898946692 0
0.020167944916 -0.0291398142795 0
-0.00801799889745 0.000551998930662 0
0.0213132151959 -0.0161566782414 0
0.0169624192565 -0.089532562745 0
-0.0106782005719 -0.00510597091598 0
-0.0132016985802 -0.0934882833403 0
-0.0177856872028 -0.0380871535772 0
0.0142549316933 -0.0279612603408 0
-0.0122033099993 -0.0293932981865 0
-0.00969368571417 -0.00270248372627 0
-0.00115931562851 -0.08154967098 0
-0.00787317116058 -0.00109863595906 0
0.0124080683456 -0.0036663626197 0
0.0157428883124 -0.00578768472692 0
-0.00706018359575 -0.000190516092174 0
-0.00742789319785 0.000531871041337 0
0.0201750237965 -0.0214196745007 0
-0.00419716542155 -0.0496628701725 0
-0.00622765066442 -0.00366006642899 0
-0.0112625290874 -0.112334202996 0
-0.0161553622401 -0.0106087084821 0
0.0175315669439 -0.0131887538146 0
-0.0075737672395 -0.000409832257728 0
0.0172230232701 -0.0214019894045 0
0.016613923958 -0.00433346885855 0
-0.00634809674528 -0.000705291471759 0
-0.00769283704798 0.00069189224305 0
0.00932013386771 -0.0284302955627 0
-0.00769205421217 0.000329693101894 0
-0.00740986299346 0.000663207732941 0
0.0193009785814 -0.0612316684401 0
0.0036736720948 -0.113487551075 0
-0.00908940228615 -0.00220704313217 0
-0.0142301407381 -0.0244803087268 0
-0.0158637162661 -0.0858873420171 0
-0.0113763202633 -0.0108845256752 0
-0.00494152480403 -0.000294310783571 0
0.0162362990353 -0.00478433416859 0
0.00374680242591 -0.0220568308269 0
0.014280143054 -0.00390381132158 0
-0.00731184206551 -0.000948436849373 0
0.0194017676347 -0.0104452172609 0
-0.0175130722001 -0.0351838069933 0
0.0138167164781 -0.0460791854161 0
-0.00973385358716 -0.00146685058996 0
0.0197355516027 -0.0324138242576 0
-0.0137236119901 -0.00591850550835 0
-0.0104953204155 -0.0477673024365 0
-0.0206227862053 -0.0288809372938 0
-0.01702807124 -0.0673544160426 0
0.0200081601419 -0.0534801925259 0
0.0139052234563 -0.00770150287447 0
-0.00746183893728 0.000165469680789 0
0.0220307500354 -0.0632090634006 0
0.0142480356849 -0.00490888126947 0
-0.00733926807652 -0.000465869052456 0
-0.00821482485426 -0.000258482281602 0
0.0102657438023 -0.11225648825 0
-0.0107052024487 -0.0123635893663 0
-0.0063557107876 -0.115612956306 0
0.0156838283725 -0.00392518582004 0
-0.00501249777669 -0.00132754845306 0
-0.00934693114121 -0.0644327087017 0
-0.00725644665347 -0.00161406374419 0
0.0143720512857 -0.00293295018871 0
0.011814671896 -0.124386046702 0
-0.00534036052513 -0.00803439102768 0
-0.0084351627998 -0.128271905347 0
-0.00687910671842 0.000177910644577 0
-0.00660553468276 0.000192893819673 0
-0.00177464887117 -0.105797218653 0
0.0178706306549 -0.00828372265458 0
0.00194751795973 -0.139165038849 0
0.0225229699548 -0.0236729840609 0
-0.0149418495183 -0.0637344849949 0
-0.0128235572779 -0.00425947532786 0
0.0131919664519 -0.11226971501 0
-0.00814264605125 -0.00764285683807 0
-0.00951481700897 -0.115907955613 0
0.013590898263 -0.0802187844946 0
-0.0201180170759 -0.0272892954196 0
0.0107501656185 -0.00562753011394 0
0.0105015056667 -0.0102775499273 0
-0.00770413569079 0.000417325526457 0
-0.00660748047979 -0.00122414127787 0
-0.00474458556471 -0.0187513188052 0
0.0139307406822 -0.109543958014 0
-0.00572681359166 -0.0311821669042 0
0.00921267718607 -0.0166445909907 0
0.0121587282743 -0.00447191238644 0
-0.00785092683121 -0.000688343902675 0
-0.00759194992397 0.00067823698784 0
0.0231913321199 -0.0395205504279 0
0.011292531888 -0.00659307819267 0
-0.00780622399104 -4.73247203326e-05 0
-0.00885524892221 -3.59582001965e-05 0
0.0129211485822 -0.0898381935561 0
-0.013759611317 -0.00967051181261 0
-0.00925303921696 -0.0904199293697 0
-0.0202897403883 -0.0499354040887 0
0.00967062134893 -0.00364403119946 0
-0.00236418650945 -0.000199335813725 0
0.0175961610224 -0.0371766752166 0
-0.0147559046659 -0.0619365117885 0
-0.00779724154411 0.000464774921739 0
5.42432782941e-05 -0.11839541635 0
-0.0148261037207 -0.0183584293756 0
-0.0180313805264 -0.0722249562285 0
-0.00937909618162 -0.00126579126812 0
-0.00184420530831 -0.000347772741581 0
0.00733018888228 -0.00192848945016 0
-0.00283404412046 -0.000242086110647 0
0.0149247237845 -0.0122112571703 0
-0.00749734725687 0.00053205554101 0
0.0159203129664 -0.0620170033124 0
0.00667332073697 -0.104405944828 0
-0.0153739045679 -0.0427635824336 0
-0.0080626507288 -6.91028689653e-05 0
0.0155222111381 -0.101773910216 0
-0.00873385709013 -0.00545695369563 0
-0.0117426226207 -0.106383411828 0
0.016048481382 -0.00394105107086 0
-0.0066226137556 -0.000996027188647 0
0.0111812613669 -0.0526509233329 0
0.0168423463974 -0.0924372558652 0
0.0171919285255 -0.00500595105501 0
-0.00590823308005 -0.00036907914409 0
-0.00702037955155 5.74197986643e-05 0
0.0106547306107 -0.128487235566 0
-0.00517551132453 -0.0100762198962 0
-0.00805007610809 -0.0547770769391 0
-0.00712940479984 -0.131785967102 0
-0.00350469953468 -0.0650446183955 0
0.022151921235 -0.0566789538218 0
0.0160606313304 -0.00347504643932 0
-0.006393158238 -0.00165539990985 0
0.00685223551094 -0.0600795458981 0
0.00798075882693 -0.00985278108482 0
0.0222739724173 -0.0221810097965 0
-0.00547844601998 -0.0128546194724 0
0.00198211771022 -0.0411111665743 0
-0.00573339385971 -0.00206892283002 0
-0.0164334323888 -0.0146577857549 0
-0.00484744179384 -9.15598424854e-05 0
-0.0176082133109 -0.0134676283874 0
-0.0074267460559 0.000462527286971 0
0.0190484122262 -0.082658320565 0
-0.00392348883395 -0.00058349518917 0
-0.0020493376683 -0.000878302535079 0
0.00787934149981 -0.00279915271784 0
0.0124101678158 -0.00321369329168 0
-0.00791370497185 -0.00135592809382 0
0.0174362427398 -0.0165687869742 0
-0.00295879582044 -0.0178017445292 0
-0.00833228012611 -0.00427124420254 0
-0.00753768396398 -0.00170913882099 0
0.0135412419847 -0.00262995113316 0
-0.00516303953418 -0.00118077992354 0
0.0164595733875 -0.00651779124187 0
-0.00569300755948 -0.00015381962239 0
-0.00876759608011 -0.013568724871 0
0.00766750988007 -0.0159699957669 0
-0.0100039729946 -0.00095285039205 0
-0.00755902162888 0.000611617684451 0
0.0103261237436 -0.0745091491788 0
-0.0201376849499 -0.0489668593315 0
0.0130044792413 -0.0921160603405 0
-0.00895835227129 -0.0783906231856 0
0.00419209904196 -0.122900365046 0
0.0163615528056 -0.00502292565818 0
-0.00675119764134 -0.000411888697764 0
0.00984213261615 -0.00865057681423 0
-0.00518402678095 -0.0774341516074 0
-0.010410053937 -0.0989117316031 0
-0.0168823583533 -0.012565103398 0
-0.0170447178263 -0.0190817272765 0
-0.0185605207819 -0.0680839166739 0
-0.0100607229509 -0.00151739105617 0
0.00575548259059 -0.0941183117352 0
0.00659122858918 -0.140870035292 0
-0.00281607791625 -0.142175471521 0
0.0163836356127 -0.00958838920683 0
0.0133092528934 -0.0038379199749 0
-0.00758492408272 -0.0009820785391 0
-0.00599699158511 -0.00268608363914 0
-0.00544950256666 -0.0048936954771 0
-0.0111965896619 -0.108308682159 0
-0.0101543269436 -0.120839185389 0
-0.00460071198677 -0.000626258284465 0
0.0152885473952 -0.00378864534658 0
0.0237692300618 -0.0400810482585 0
0.0142824644328 -0.0034176474606 0
-0.00729998096217 -0.00127502344627 0
0.01949372341 -0.0143725913699 0
0.0123383607069 -0.121912958835 0
-0.00203824594178 -0.0243076993404 0
-0.0142247368416 -0.00650729345422 0
-0.0120412348621 -0.0685712851671 0
0.00805971956832 -0.0238929127656 0
-0.00439546530062 -0.104092569738 0
-0.00744955239538 0.000702533408577 0
-0.00795276413677 -0.00174334556427 0
0.0123872128602 -0.00245782628201 0
-0.0158126401652 -0.0310471206311 0
-0.0146085701063 -0.0916055123672 0
-0.00963099883647 -0.00349298765594 0
-0.00704509051282 6.92195554041e-05 0
0.0201659837265 -0.0119388247752 0
0.0161931258669 -0.007060159896 0
0.0131874125533 -0.00498513378045 0
-0.007567208049 -0.000446151575063 0
0.0139577421675 -0.0189339127944 0
0.00725850754649 -0.0328776964567 0
-0.0072454182821 0.000563714732304 0
0.0232394478943 -0.0457448095085 0
0.018148587627 -0.0777293856897 0
-0.0119304963147 -0.00452972939815 0
-0.0198168818649 -0.0327920572349 0
-0.0145847383302 -0.080130804727 0
-0.00806421231072 0.000473267558222 0
-0.0193324253527 -0.0599980312604 0
-0.00910109517187 -0.000210637258134 0
0.0106450989549 -0.100044935867 0
-0.00887856981583 -0.000316702656927 0
-0.0133938172958 -0.0124280652078 0
0.0146764628489 -0.0065816232619 0
0.0131366406548 -0.0772039804221 0
-0.00731739689142 -2.84045649979e-05 0
-0.0150987865664 -0.00927226011059 0
-0.0209151080477 -0.043537578111 0
-0.00919686722777 -0.0788991404612 0
0.0187210248172 -0.0773427482268 0
0.0210990494152 -0.0676455709009 0
-0.00794597582882 -0.00159971025759 0
-0.0105998275353 -0.0214811922973 0
-0.0149958590822 -0.0888623201547 0
0.00347084212719 -0.143439793552 0
0.000359521251157 -0.144056634923 0
0.0151460547009 -0.0909316624069 0
-0.0120351060996 -0.00719391099701 0
-0.0112798686436 -0.0947241571169 0
-0.0194039301007 -0.0453652178153 0
0.0098146904999 -0.00909623272719 0
-0.00780698411551 0.000299627956818 0
-0.00759627233188 0.000714485115219 0
0.0221400425771 -0.0397756461863 0
0.00927371077266 -0.122398520631 0
-0.00546097325156 -0.124947205943 0
0.0219501636361 -0.0350734379629 0
0.00901546924819 -0.011843514612 0
-0.00525081072442 -0.00643230371638 0
-0.00932799262315 -0.12564122654 0
0.0180886347199 -0.007012430402 0
-0.00642054283517 9.68190997389e-06 0
-0.0187129353612 -0.045588770629 0
-0.00697934537538 -0.00168483538076 0
0.0150787847176 -0.00300610189336 0
-0.00752132502817 0.00056184414366 0
-0.0106480803048 -0.00170739873865 0
-0.00772577806618 0.000507110566521 0
-0.00836600954028 0.00032769356606 0
0.0144112717507 -0.00914772319673 0
-0.00745012896353 0.00033387320105 0
0.0217225816785 -0.0507421489009 0
-0.00174901146774 -0.000199351355375 0
0.00705892454182 -0.00200847810192 0
-0.00719049275265 0.000360240512561 0