# vtk DataFile Version 2.0
Generated with Solid Solver
ASCII
DATASET UNSTRUCTURED_GRID
POINTS 1163 float 
0.0 3.5 0.0
2.2 3.5 0.0
2.2 4.0 0.0
0.0 4.0 0.0
0.0687499999999 3.5 0.0
0.1375 3.5 0.0
0.20625 3.5 0.0
0.275 3.5 0.0
0.343749999999 3.5 0.0
0.412499999999 3.5 0.0
0.481249999999 3.5 0.0
0.549999999999 3.5 0.0
0.618749999998 3.5 0.0
0.687499999998 3.5 0.0
0.756249999998 3.5 0.0
0.824999999998 3.5 0.0
0.893749999998 3.5 0.0
0.962499999997 3.5 0.0
1.03125 3.5 0.0
1.1 3.5 0.0
1.16875 3.5 0.0
1.2375 3.5 0.0
1.30625 3.5 0.0
1.375 3.5 0.0
1.44375 3.5 0.0
1.5125 3.5 0.0
1.58125 3.5 0.0
1.65 3.5 0.0
1.71875 3.5 0.0
1.7875 3.5 0.0
1.85625 3.5 0.0
1.925 3.5 0.0
1.99375 3.5 0.0
2.0625 3.5 0.0
2.13125 3.5 0.0
2.2 3.56430812579 0.0
2.2 3.6227083524 0.0
2.2 3.67574343203 0.0
2.2 3.72390623714 0.0
2.2 3.76764438299 0.0
2.2 3.80736436348 0.0
2.2 3.84343531161 0.0
2.2 3.87619247056 0.0
2.2 3.90594026646 0.0
2.2 3.93295517223 0.0
2.2 3.9574882542 0.0
2.2 3.97976750927 0.0
2.18000003888 4.0 0.0
2.15999995974 4.0 0.0
2.13999995594 4.0 0.0
2.12000003893 4.0 0.0
2.0999999813 4.0 0.0
2.07999993507 4.0 0.0
2.06000001965 4.0 0.0
2.04000002354 4.0 0.0
2.01999993997 4.0 0.0
1.99999999426 4.0 0.0
1.98000004623 4.0 0.0
1.95999996625 4.0 0.0
1.93999996787 4.0 0.0
1.92000005069 4.0 0.0
1.90000001292 4.0 0.0
1.87999994967 4.0 0.0
1.86000003245 4.0 0.0
1.84000003166 4.0 0.0
1.81999995194 4.0 0.0
1.80000002065 4.0 0.0
1.78000005962 4.0 0.0
1.75999997703 4.0 0.0
1.73999998149 4.0 0.0
1.72000006236 4.0 0.0
1.70000000651 4.0 0.0
1.67999995967 4.0 0.0
1.66000004242 4.0 0.0
1.64000004304 4.0 0.0
1.61999996152 4.0 0.0
1.6000000096 4.0 0.0
1.58000006667 4.0 0.0
1.55999998704 4.0 0.0
1.53999998381 4.0 0.0
1.52000006764 4.0 0.0
1.5000000299 4.0 0.0
1.47999996242 4.0 0.0
1.46000004337 4.0 0.0
1.4400000454 4.0 0.0
1.41999996386 4.0 0.0
1.40000002834 4.0 0.0
1.38000006734 4.0 0.0
1.35999998576 4.0 0.0
1.33999998537 4.0 0.0
1.32000006658 4.0 0.0
1.30000001585 4.0 0.0
1.27999996279 4.0 0.0
1.26000004759 4.0 0.0
1.24000004493 4.0 0.0
1.2199999616 4.0 0.0
1.20000000906 4.0 0.0
1.18000006792 4.0 0.0
1.15999998616 4.0 0.0
1.13999999119 4.0 0.0
1.12000007157 4.0 0.0
1.1 4.0 0.0
1.07999992843 4.0 0.0
1.06000000881 4.0 0.0
1.04000001384 4.0 0.0
1.01999993209 4.0 0.0
0.999999990948 4.0 0.0
0.98000003841 4.0 0.0
0.959999955072 4.0 0.0
0.939999952416 4.0 0.0
0.920000037214 4.0 0.0
0.899999984154 4.0 0.0
0.879999933427 4.0 0.0
0.860000014636 4.0 0.0
0.840000014246 4.0 0.0
0.819999932662 4.0 0.0
0.79999997166 4.0 0.0
0.780000036145 4.0 0.0
0.759999954604 4.0 0.0
0.73999995663 4.0 0.0
0.72000003758 4.0 0.0
0.699999970103 4.0 0.0
0.679999932361 4.0 0.0
0.660000016189 4.0 0.0
0.640000012962 4.0 0.0
0.61999993333 4.0 0.0
0.599999990406 4.0 0.0
0.58000003848 4.0 0.0
0.559999956964 4.0 0.0
0.539999957581 4.0 0.0
0.520000040329 4.0 0.0
0.499999993489 4.0 0.0
0.479999937647 4.0 0.0
0.460000018512 4.0 0.0
0.440000022972 4.0 0.0
0.419999940378 4.0 0.0
0.399999979352 4.0 0.0
0.380000048063 4.0 0.0
0.359999968347 4.0 0.0
0.339999967553 4.0 0.0
0.320000050328 4.0 0.0
0.299999987077 4.0 0.0
0.279999949312 4.0 0.0
0.260000032129 4.0 0.0
0.240000033752 4.0 0.0
0.219999953776 4.0 0.0
0.200000005737 4.0 0.0
0.180000060031 4.0 0.0
0.159999976465 4.0 0.0
0.139999980354 4.0 0.0
0.120000064926 4.0 0.0
0.100000018697 4.0 0.0
0.0799999610675 4.0 0.0
0.0600000440571 4.0 0.0
0.0400000402596 4.0 0.0
0.0199999611169 4.0 0.0
0.0 3.97976750927 0.0
0.0 3.9574882542 0.0
0.0 3.93295517223 0.0
0.0 3.90594026646 0.0
0.0 3.87619247056 0.0
0.0 3.84343531161 0.0
0.0 3.80736436348 0.0
0.0 3.76764438299 0.0
0.0 3.72390623714 0.0
0.0 3.67574343203 0.0
0.0 3.6227083524 0.0
0.0 3.56430812579 0.0
0.249757963562 3.75212589829 0.0
1.94999996706 3.74954522137 0.0
0.488710285893 3.75947702441 0.0
0.726520490699 3.7655965719 0.0
0.967283134849 3.7597072979 0.0
1.20619032017 3.75831098673 0.0
1.45842774915 3.76733088374 0.0
1.69012076678 3.7622332834 0.0
0.130754044069 3.86878249167 0.0
2.06924595593 3.86878249167 0.0
1.8299999918 3.84622455633 0.0
1.56816462369 3.85034872999 0.0
0.369913859351 3.84868157925 0.0
0.608733620231 3.84706187144 0.0
1.33069778866 3.84790908234 0.0
0.84323446252 3.84762979148 0.0
1.08873170817 3.84705870913 0.0
0.250539365135 3.87785524304 0.0
1.94967747948 3.87849609822 0.0
1.73218750075 3.8916046151 0.0
0.468661874066 3.89189322974 0.0
1.47574192429 3.89639134117 0.0
0.704258110321 3.8963912684 0.0
1.18331258449 3.8976320365 0.0
0.949999953744 3.89208018478 0.0
1.64795374468 3.91749779939 0.0
0.548928463645 3.91905583847 0.0
1.38619509199 3.91928594438 0.0
0.788926872841 3.91906062101 0.0
1.27071160784 3.91777932845 0.0
1.02999997296 3.91685174433 0.0
1.81733541416 3.69950870754 0.0
1.86999999106 3.91823503401 0.0
0.071252620538 3.93011431841 0.0
2.12874737946 3.93011431841 0.0
2.07400690796 3.74293885365 0.0
0.125993092043 3.74293885365 0.0
0.32995676804 3.92118147353 0.0
2.00999996712 3.92542383197 0.0
0.190000032884 3.92542383197 0.0
1.56698738743 3.72218882919 0.0
1.33000000474 3.72531695685 0.0
0.848014510843 3.71986098938 0.0
1.09024665585 3.72285801424 0.0
0.610276609989 3.72290563624 0.0
1.54999998543 3.92414142844 0.0
0.629999973146 3.92414137652 0.0
0.869999974031 3.92414141814 0.0
1.11000003579 3.92414141267 0.0
1.79030638642 3.92649353654 0.0
0.370434802927 3.72513294336 0.0
0.410903135411 3.92892991244 0.0
1.33000002597 3.93737911571 0.0
0.129927648482 3.94112154503 0.0
2.07007235152 3.94112154503 0.0
1.93000000928 3.93875927586 0.0
0.26999999072 3.93875927586 0.0
1.40966706061 3.83880068991 0.0
0.770332962441 3.83880062149 0.0
1.24904900022 3.84293377683 0.0
1.01033287484 3.83880060723 0.0
0.530342681434 3.83880307444 0.0
0.189895273961 3.63486992823 0.0
2.00989835291 3.62845703161 0.0
0.998888153878 3.61665036233 0.0
1.47894673873 3.61675180774 0.0
0.51733910646 3.62937665489 0.0
0.705112628302 3.618743723 0.0
1.66672137035 3.63168728155 0.0
1.18508242495 3.61871739348 0.0
1.71000003443 3.94408608591 0.0
0.489999965568 3.94463856597 0.0
1.44983363802 3.94422347836 0.0
0.729999997105 3.94465012565 0.0
1.21016639734 3.94422345842 0.0
0.928621800545 3.94440037102 0.0
2.00626203014 3.81543543551 0.0
0.193627962274 3.81528928332 0.0
1.66628164144 3.83559795895 0.0
1.75661718781 3.81065958113 0.0
1.61143779865 3.94859227761 0.0
0.991673865748 3.95161238438 0.0
0.0604617941233 3.86281264864 0.0
2.13953820588 3.86281264865 0.0
0.300965570716 3.8114148258 0.0
0.2970894797 3.66361086085 0.0
0.398842167194 3.60449226805 0.0
1.51000004877 3.95218393067 0.0
1.90135619383 3.81213273629 0.0
0.669405272842 3.95495208979 0.0
1.07142780558 3.94866325309 0.0
0.592085094025 3.94901139323 0.0
0.831051660929 3.94633985879 0.0
1.14940528892 3.9549521224 0.0
0.44409344258 3.82719938178 0.0
1.49646539728 3.82376850413 0.0
0.683434082651 3.82631713605 0.0
0.92337834777 3.8234861632 0.0
1.16343437877 3.82631615351 0.0
1.90749084149 3.65350700271 0.0
1.8278758005 3.95083911942 0.0
0.37243073327 3.95235211027 0.0
1.29345662549 3.60569899261 0.0
0.813407949226 3.60572380122 0.0
1.29317153636 3.96216077293 0.0
1.367704599 3.96055764734 0.0
1.97071235041 3.96038324024 0.0
0.22928764959 3.96038324024 0.0
2.10610581798 3.66047411138 0.0
0.0938941820177 3.66047411138 0.0
1.67000000105 3.95862953468 0.0
1.74869816704 3.96079301687 0.0
0.531976761939 3.96138655466 0.0
0.451361042387 3.96112774725 0.0
0.771976832233 3.96138887156 0.0
1.88843481911 3.95881554986 0.0
1.61277513709 3.78538823015 0.0
2.13311214501 3.79435403671 0.0
0.0668878549946 3.79435403671 0.0
1.76678797151 3.60286552601 0.0
0.311702446283 3.9611157379 0.0
1.02877762737 3.96159282031 0.0
1.40830122607 3.96143175203 0.0
1.25214210333 3.957355862 0.0
1.59476493393 3.9048774062 0.0
1.56950979124 3.96148017208 0.0
0.890017020275 3.96125792969 0.0
2.03089110475 3.96040268709 0.0
0.169108895255 3.96040268709 0.0
0.939722125942 3.68539157065 0.0
1.41686981874 3.69192854313 0.0
0.0426348006718 3.96101756902 0.0
2.15736519933 3.96101756902 0.0
1.36077308019 3.79177204211 0.0
0.817982383499 3.78962669257 0.0
1.05834720932 3.78780184893 0.0
0.578349529346 3.78781530011 0.0
1.77992711518 3.87652731382 0.0
0.417982153133 3.87594990465 0.0
1.84363633012 3.77741329286 0.0
1.52244994479 3.87704541475 0.0
0.657426528912 3.87734838249 0.0
1.13742651778 3.87734834025 0.0
0.898116026439 3.8800466833 0.0
1.56984259435 3.64465823131 0.0
1.08983016076 3.6446495206 0.0
0.609942357805 3.64483976081 0.0
1.29451769374 3.79627773068 0.0
0.0893439668432 3.96574839433 0.0
2.11065603316 3.96574839433 0.0
2.01422398896 3.86980625824 0.0
0.185776011038 3.86980625824 0.0
0.305957237756 3.87340573745 0.0
1.72977480551 3.68665973332 0.0
1.25418096296 3.69351129461 0.0
0.629999973146 3.96272981435 0.0
1.11000003579 3.96272983221 0.0
0.772975283819 3.69297597031 0.0
1.89089074715 3.86951346173 0.0
0.445448577516 3.69456159386 0.0
1.82621986864 3.89678318705 0.0
2.07135424223 3.81165410377 0.0
0.128645757768 3.81165410377 0.0
0.373320289473 3.89968791662 0.0
1.79000004014 3.96541718891 0.0
0.383302070088 3.78976392323 0.0
0.409457623385 3.96502881851 0.0
1.55531527123 3.78787141386 0.0
1.34861332978 3.89383287415 0.0
0.593245985735 3.89483466551 0.0
0.833245353375 3.89479604398 0.0
1.0732444554 3.8948349405 0.0
0.911896623122 3.59194725763 0.0
0.187580554011 3.70699710313 0.0
2.01241944599 3.70699710313 0.0
1.39201907571 3.59233063354 0.0
2.09635520798 3.90516200201 0.0
0.103644792024 3.90516200201 0.0
1.89086147526 3.72621461413 0.0
1.02102684616 3.70044819701 0.0
1.49813234221 3.70194667869 0.0
0.53965669049 3.70593418829 0.0
1.63719578665 3.69772473547 0.0
0.685447658936 3.70127585046 0.0
1.16541741817 3.70128744764 0.0
0.901649266036 3.76287226775 0.0
0.992351690321 3.90662993531 0.0
1.69131894868 3.90657323657 0.0
1.9699561555 3.91599371502 0.0
0.230043844497 3.91599371502 0.0
1.61980840676 3.85005402918 0.0
2.04685187594 3.90639759008 0.0
0.153148124058 3.90639759008 0.0
0.512139828486 3.90538520837 0.0
1.43057458921 3.90702644399 0.0
0.749149996349 3.90689574876 0.0
[...]
POINT_DATA 1163
VECTORS Displacement float
0.0 0.0 0
0.0 0.0 0
0.00870984720863 -0.00200700228179 0
-0.0116304889754 -0.00156568478293 0
0.0 0.0 0
0.0 0.0 0
0.0 0.0 0
0.0 0.0 0
0.0 0.0 0
0.0 0.0 0
0.0 0.0 0
0.0 0.0 0
0.0 0.0 0
0.0 0.0 0
0.0 0.0 0
0.0 0.0 0
0.0 0.0 0
0.0 0.0 0
0.0 0.0 0
0.0 0.0 0
0.0 0.0 0
0.0 0.0 0
0.0 0.0 0
0.0 0.0 0
0.0 0.0 0
0.0 0.0 0
0.0 0.0 0
0.0 0.0 0
0.0 0.0 0
0.0 0.0 0
0.0 0.0 0
0.0 0.0 0
0.0 0.0 0
0.0 0.0 0
0.0 0.0 0
0.00179011244242 -0.00150614524817 0
0.00326006182388 -0.00209046422489 0
0.00450529341043 -0.00230706788983 0
0.00545078505015 -0.00233711026619 0
0.00617213050884 -0.00228464006262 0
0.0067302036939 -0.00220349309383 0
0.00715577469841 -0.00213309784314 0
0.00751097408997 -0.00207616148364 0
0.00780430305187 -0.00203707478904 0
0.00806179310324 -0.00201789226642 0
0.0082951032542 -0.00200922448113 0
0.00851067524268 -0.00200683349609 0
0.00871002635033 -0.00180926149636 0
0.0087089111326 -0.00160778634134 0
0.0087038420792 -0.00140348769519 0
0.00869295281016 -0.00119771164283 0
0.0086755925025 -0.000993275541151 0
0.00865164334596 -0.000793565232217 0
0.00861940704239 -0.000598646934552 0
0.00858124826431 -0.000414275662914 0
0.00853435823338 -0.000238875722012 0
0.00848274020246 -7.73979692579e-05 0
0.00842028214415 7.13565739637e-05 0
0.00835063469096 0.000201435958638 0
0.00827548833262 0.00031193431157 0
0.00818858373528 0.000403729268767 0
0.0080959986862 0.00047082770471 0
0.00798771325361 0.0005148004123 0
0.00787050742855 0.000527834894337 0
0.00773794613237 0.000513132918885 0
0.00759308702631 0.000458699737687 0
0.00742336338587 0.00036482268322 0
0.00723959397909 0.000224009468814 0
0.00704574650824 2.88881419817e-05 0
0.00681943811684 -0.000212381553439 0
0.00657417099997 -0.000528026649466 0
0.00629089946814 -0.000911653075115 0
0.00599600861378 -0.00138263609995 0
0.00565342364758 -0.00194048655395 0
0.00528503293615 -0.00261414868304 0
0.00487936756649 -0.00340190717928 0
0.00446775876867 -0.0043225409086 0
0.00401797778513 -0.0054118458107 0
0.00349832586991 -0.00664736088996 0
0.00297588321282 -0.00808208281949 0
0.00240835891384 -0.00973807450474 0
0.00182808746771 -0.0116437769775 0
0.00121259378793 -0.0138171102472 0
0.000571771970028 -0.016317935278 0
-9.80556194891e-05 -0.0192181644189 0
-0.000687950658319 -0.0225399005161 0
-0.00130019017161 -0.0264327658058 0
-0.00175657571583 -0.0308512296351 0
-0.00206015876372 -0.0360617167095 0
-0.00202576742901 -0.0422465037206 0
-0.00131441098528 -0.0501382726074 0
0.000397209818769 -0.0599077921446 0
0.00219115678454 -0.0689980183138 0
0.00382501116365 -0.0777018416644 0
0.00538819094189 -0.0858013585186 0
0.00662530464991 -0.093505572438 0
0.00769598102488 -0.100737062262 0
0.00848321736864 -0.107537101369 0
0.00901377664259 -0.113893931088 0
0.00927759207522 -0.11984234316 0
0.00931554542542 -0.125301698572 0
0.00907879477648 -0.13030200288 0
0.00863539594067 -0.134808599654 0
0.00801317582212 -0.138818638186 0
0.00716140273363 -0.142328515574 0
0.00614651677246 -0.145311198355 0
0.00500650085014 -0.147765378127 0
0.00373328987974 -0.149681673622 0
0.00235276388931 -0.151049724408 0
0.00084965510388 -0.151844940562 0
-0.000753659330699 -0.152088690036 0
-0.00242900610499 -0.151840824354 0
-0.00398389134504 -0.150987151234 0
-0.00543197121408 -0.149576663346 0
-0.00672095891844 -0.14761994934 0
-0.00788882503914 -0.145125672295 0
-0.00890607298761 -0.142101136229 0
-0.009758067749 -0.138553704346 0
-0.0104427299923 -0.134491838446 0
-0.0109136051371 -0.129935240823 0
-0.0111484347423 -0.124885760933 0
-0.0111851503759 -0.119354047495 0
-0.010957479571 -0.113411282215 0
-0.0104634653833 -0.106997967124 0
-0.00970929533169 -0.100131509905 0
-0.00875397450661 -0.092815696671 0
-0.0074468059495 -0.0850725900207 0
-0.00607361147329 -0.0768606685497 0
-0.00436200401801 -0.0680660693838 0
-0.00263081501736 -0.0588812715732 0
-0.00102833691365 -0.0489475259925 0
-0.000706039338314 -0.0416634298662 0
-0.00107676786833 -0.0356149358405 0
-0.00157459084257 -0.0306817580018 0
-0.00226127009726 -0.0264223608109 0
-0.00292485233881 -0.0227935191374 0
-0.00368553669496 -0.019633577871 0
-0.00450512199887 -0.0169303829148 0
-0.00525059515372 -0.0145883855766 0
-0.00598151010564 -0.0125856583069 0
-0.00669622965481 -0.0108468913176 0
-0.00737870129112 -0.00936905695791 0
-0.00799068676946 -0.00809966580394 0
-0.00859197090749 -0.00703323352769 0
-0.00912032370047 -0.0061316300801 0
-0.00961907145325 -0.00538079501902 0
-0.0100676048087 -0.00477277434808 0
-0.0104395177688 -0.00425792102296 0
-0.0107744086776 -0.00384222074343 0
-0.0110431337409 -0.00348458134529 0
-0.0112640518246 -0.00319440914889 0
-0.0114237479874 -0.00292630460546 0
-0.0115343303144 -0.00268067766266 0
-0.0115999125889 -0.0024330863185 0
-0.0116282284241 -0.00216800929119 0
-0.0116322334388 -0.00187922301692 0
-0.0119521497832 -0.00156398014332 0
-0.0123319955784 -0.00157517065195 0
-0.0127839772641 -0.00162517169229 0
-0.0132970012047 -0.00174101413718 0
-0.0138261497165 -0.00199131847271 0
-0.014253753886 -0.00237882312122 0
-0.0145552728745 -0.0029054188975 0
-0.0144361952713 -0.00358578794345 0
-0.013736750221 -0.00428373719101 0
-0.0121936003183 -0.00487937246832 0
-0.00936130427727 -0.00495324630297 0
-0.00539714184496 -0.00391230045793 0
-0.016756448883 -0.00561700862721 0
0.00663051214149 1.35584843485e-05 0
-0.0225401176824 -0.026333862353 0
-0.0161227717038 -0.0610852450014 0
0.00331626079523 -0.069675297032 0
0.0190406250032 -0.0479545019474 0
0.0178236105644 -0.0140627441089 0
0.0107528042637 -0.00151762519421 0
-0.0142549559664 -0.00319470020135 0
0.00749914454663 -0.000673960265594 0
0.00838494845144 0.000405182831496 0
0.012355457631 -0.00596618446883 0
-0.0183771252082 -0.0148097328027 0
-0.0219775782298 -0.060237870977 0
0.0198892427173 -0.0381598104705 0
-0.0076130457673 -0.0958992064281 0
0.0129540015098 -0.0867934030993 0
-0.0147601688481 -0.00617619045847 0
0.00779610151488 0.000272426628347 0
0.00875162655377 -0.000243792705565 0
-0.0187486911602 -0.0313667532682 0
0.0121261666823 -0.0140559987967 0
-0.0167675138896 -0.0924024480175 0
0.0166089286361 -0.0826375934277 0
0.00167955566883 -0.112929100556 0
0.00853023699712 -0.00215334686439 0
-0.0184442035145 -0.055097557182 0
0.0126822720236 -0.0290269812118 0
-0.0111691956762 -0.113612303398 0
0.0163310819667 -0.062115994525 0
0.00787403645177 -0.115710738621 0
0.00741594896813 -0.000283182380053 0
0.00803002639394 0.000581129435853 0
-0.0128529010591 -0.00255830564385 0
0.00803817146338 -0.00128385796826 0
0.00589025034137 -0.000735953782434 0
-0.0147258015887 -0.00308390678665 0
-0.0130517362701 -0.0112573888268 0
0.00798514460325 -0.000123830593701 0
-0.0127144894751 -0.00422850964508 0
0.013893949933 -0.00553552996574 0
0.0200016080663 -0.0259531248348 0
-0.00642018067409 -0.0569852977372 0
0.0122392715274 -0.0523618842798 0
-0.0203346717594 -0.0376629484353 0
0.00875640770997 -0.00707646828065 0
-0.0177649222517 -0.0809744209475 0
-0.00502827816555 -0.123086733946 0
0.0125012717837 -0.105701739648 0
0.00805366537955 0.000396589914907 0
-0.0192950161767 -0.0117926587525 0
-0.0133196170112 -0.0209604179477 0
0.0126044503838 -0.0446162801001 0
-0.0124478616731 -0.00319594926243 0
0.00811897422833 -0.000676798955647 0
0.00803195359248 0.000408517848671 0
-0.0118415074933 -0.00718279396153 0
0.0179594572208 -0.0225448927145 0
-0.0134718463797 -0.0864549371234 0
0.0202790727546 -0.0560237813906 0
0.00702648316207 -0.092233239886 0
-0.0228650958951 -0.0413959629236 0
-0.011195237279 -0.00273890328436 0
0.00367967583928 -0.000303611985233 0
0.00383295367145 -0.0283145209852 0
0.0118167030853 -0.00655959873752 0
-0.0157277257572 -0.0154058888927 0
-0.0112345978774 -0.0243190116682 0
0.00838455827497 -0.00185471236963 0
0.0119949214512 -0.0220339711788 0
0.00769339248425 -0.000563637992546 0
-0.0134178934001 -0.0381582477448 0
0.00786104036169 -0.0175517080208 0
-0.0136325391575 -0.111234654363 0
0.0137679668129 -0.0857462240302 0
-0.000172013500491 -0.131609414753 0
0.00710927167489 -0.000164134614831 0
-0.0156605445703 -0.00421120101811 0
0.0106727881603 -0.00182759569042 0
0.00937001583152 -0.000238434820044 0
0.00722211582835 -0.00357367489832 0
0.0047228685837 -0.13132016364 0
-0.0141793756918 -0.00265456882181 0
0.00739334223382 -0.00142121469082 0
-0.0177329020152 -0.00865083647433 0
-0.0149791399677 -0.00585325635214 0
-0.0127038852919 -0.00728178415811 0
0.00668801194241 -0.0104244934257 0
0.00769690927445 0.000310479138484 0
-0.0147070834794 -0.0991778861671 0
0.0098220933938 -0.120201800167 0
-0.0154687150962 -0.0737882266319 0
-0.00783277738287 -0.127736760762 0
0.0123340588023 -0.105352497765 0
-0.0214524180741 -0.0241969547209 0
0.0154701434526 -0.0114294444113 0
-0.0192264315051 -0.0704669671364 0
-0.000561389242838 -0.0905076849419 0
0.0176072829054 -0.0696757347944 0
0.00515029122836 -0.000183746894534 0
0.00788294208908 0.000561425537379 0
-0.0103313190908 -0.0156795319118 0
0.0127790987539 -0.0142762188085 0
-0.00581985900895 -0.0247848429995 0
0.00996545356627 -0.0596485633077 0
0.00704733840309 -0.0339450152825 0
0.00816192973367 0.000166822130494 0
-0.0110588424016 -0.00547171835766 0
0.00414676411378 -0.000885773185812 0
-0.0116724007058 -0.00262876910688 0
0.00710835368983 -0.00149043613522 0
0.00750200368398 8.38439918623e-06 0
-0.0121679832607 -0.052982812001 0
-0.00946901536915 -0.0285425883736 0
-0.0111878414508 -0.124562645959 0
0.0079981752517 0.000552984385474 0
0.0127057222889 -0.00379758652284 0
0.00659219304704 -0.00136518291589 0
-0.0148446169967 -0.00297043443003 0
0.00534539560539 -0.000764169231001 0
-0.00997837902183 -0.0098908099029 0
0.00715106489332 -0.130821781672 0
0.0059956360493 -0.0245615234421 0
0.0119899178843 -0.0744224945035 0
0.00947457241425 -0.00436128893786 0
0.00624615501982 -0.00581299923042 0
-0.00325334331599 -0.13716985482 0
0.0082436953902 -0.000309922531614 0
-0.0116777900465 -0.00385274660483 0
0.000808168575233 -0.0480691817628 0
0.0175152575145 -0.0143126862098 0
-0.012260075771 -0.00220457537808 0
0.00832776622839 -0.0015806740386 0
0.0205293220186 -0.0279056483998 0
-0.00968285509854 -0.0761428474747 0
0.0108573193117 -0.0729210551323 0
-0.0228821924205 -0.0440136424319 0
0.0086265351691 0.000237354437633 0
-0.0182962917371 -0.0215390540746 0
0.00806791190334 0.000159601016508 0
0.012195319382 -0.00932908851655 0
-0.0195298871101 -0.077523818496 0
0.0153774620843 -0.0873461975145 0
-0.00283401528996 -0.109018002331 0
0.0113496495596 -0.00425366961145 0
0.00953331718815 -0.0325816632685 0
-0.0158945232091 -0.0239099032154 0
0.0211782859383 -0.0398404413886 0
-0.0120587226396 -0.0027463795571 0
0.00835615020855 -0.00109429808886 0
0.00758860846875 -0.000176428389252 0
-0.0144962671889 -0.00408615593318 0
-0.0157276828283 -0.00927681138315 0
0.00882248655682 -0.00108493395609 0
0.0181800174287 -0.0303309234128 0
-0.0140710223839 -0.0890573791955 0
0.0109381931706 -0.116905314685 0
-0.0113115300654 -0.045940015644 0
0.00798458520991 0.000485785089964 0
-0.0197986149215 -0.0162505140286 0
0.00821022682133 0.00052531158319 0
0.00688679855982 -0.000706710885577 0
-0.0150847274912 -0.00318960689942 0
-0.0153506222135 -0.015657964271 0
0.00764331242543 0.000376688861986 0
-0.0203222449126 -0.0150883461023 0
-0.0086303534284 -0.0208017924243 0
0.0143712590425 -0.00670387714882 0
0.0166654437143 -0.0372527231844 0
-0.020375858648 -0.0649657245996 0
-0.00820595036287 -0.110586586058 0
0.0111948559246 -0.103159807093 0
-0.000703306509557 -0.022448095477 0
-0.0145746202718 -0.00354199562573 0
0.00547192549361 -0.000312030642023 0
0.0111211898002 -0.00831828453751 0
0.00781507478618 -0.000942786132565 0
-0.0133963810957 -0.00288741869576 0
0.00686192338292 9.58358558304e-06 0
0.00700766892189 -0.0503506518112 0
0.0156347451902 -0.00893692829563 0
-0.0207529631447 -0.026900470954 0
0.0113777892451 -0.00285329481902 0
-0.0165778595882 -0.041307950927 0
0.0156981359949 -0.0406268460932 0
-0.00236662684118 -0.0711287199473 0
0.00509591324646 -0.11575583699 0
0.00867330756249 -0.000979848048881 0
0.00794323606402 0.000174518488028 0
-0.0130466964363 -0.00540150877672 0
0.0112030565428 -0.00338499414933 0
0.00783862238381 -0.000452418267462 0
-0.0133584856408 -0.00349805172913 0
-0.0189372315262 -0.0428339000516 0
0.0124938425965 -0.0204147456146 0
-0.0139653286272 -0.103751186517 0
0.0167677002186 -0.0736209188732 0
0.00550364770858 -0.00137208142821 0
-0.0140227126997 -0.00317987775132 0
0.00210334393422 -0.138855131728 0
-0.0134622797533 -0.00233252143038 0
0.00776114016419 -0.00161775288508 0
0.0050749772403 -0.0138742180138 0
-0.0133823294374 -0.110958045913 0
0.0116983103397 -0.0991757891033 0
-0.0162681859795 -0.00591879474268 0
-0.0183139267076 -0.00871389273188 0
0.0193697137382 -0.0512409239176 0
0.00746406709164 0.000170234426413 0
0.00773047896452 -0.0457112053051 0
0.00904689031825 -0.000443357338101 0
0.0149283034656 -0.0643065870863 0
-0.0210025591714 -0.0521886008868 0
0.00895600982083 -0.0132975144436 0
-0.0155806338197 -0.100121309298 0
0.0145091515574 -0.0917841759804 0
0.00656148115203 -0.00253931804226 0
-0.00509669628399 -0.0814129056042 0
0.00357615494492 -0.000327671515644 0
0.0081024243109 0.000397713062491 0
-0.0103074036239 -0.00728516450731 0
-0.0120643254377 -0.0644404052647 0
-0.00963233917349 -0.130613985855 0
0.00573801819855 -0.00775418805712 0
-0.00542766888994 -0.137033571174 0
0.0079157829424 0.000578485906628 0
0.00832557801563 -0.00067945360181 0
-0.0118420821126 -0.00324008227539 0
-0.00898114917189 -0.0120694038507 0
0.0096871308978 -0.000618755404509 0
0.00825042002849 -3.82133667871e-05 0
-0.0110870560555 -0.00464690623038 0
-0.0218795896667 -0.0319352798851 0
0.0159470795883 -0.0159163555617 0
-0.0167760913103 -0.0817751826397 0
0.0189593822874 -0.0665227214224 0
0.00290360599768 -0.0969849564015 0
0.00291589969908 -0.000257622582394 0
-0.00810060061345 -0.00262120576035 0
0.00823321630383 3.91347287499e-05 0
0.00268515123548 -0.125524113815 0
-0.0156006351319 -0.027833340876 0
0.0167068501353 -0.0497988576504 0
-0.0111871503766 -0.0994485307883 0
0.00898899202376 -0.100108401474 0
-0.0218092357826 -0.0517690635402 0
-0.00648008383534 -0.00153361370461 0
0.00207860180899 -0.000372462259897 0
-0.009129228914 -0.00397857455062 0
0.00798799078 0.000503881316055 0
-0.0138729999675 -0.00870399836107 0
0.0162573986004 -0.00996542559568 0
0.0171693516176 -0.0285265215539 0
-0.001900730654 -0.120243224656 0
-0.0212827135496 -0.0183443081033 0
0.00953377532682 -0.00965611347308 0
-0.0174174285055 -0.0887320134283 0
0.0142725108677 -0.0964218659209 0
0.00715088805186 -0.00100038562788 0
-0.0146716086133 -0.00296434816706 0
0.00710703712405 -0.000611166330332 0
0.00804400117207 -0.00537391279588 0
0.00646275505543 -0.00037338009849 0
-0.0155126915752 -0.00363450224956 0
-0.00890341943841 -0.0385969804623 0
0.00504580648239 -0.0169713071322 0
-0.0128545770325 -0.116709215821 0
0.000159942919013 -0.14024914856 0
0.0115871753798 -0.0916160581224 0
0.0202065391879 -0.0370385469944 0
0.00980992917297 -0.00175292453227 0
0.00691550845963 -0.0016797097467 0
-0.014621136025 -0.00281453341603 0
0.0192358628016 -0.0192572000593 0
0.00517695609199 -0.00162361957988 0
0.00872528432244 0.000111951185959 0
0.0062321279668 -0.0123175259879 0
0.0169331975666 -0.0180825549796 0
-0.00774856852572 -0.0109982596157 0
-0.00491967125775 -0.0406119348702 0
-0.0147951278961 -0.00475927898936 0
-0.0117422523451 -0.0603087277919 0
-0.0188094619762 -0.011770381168 0
0.0108795604832 -0.00600247230014 0
-0.0100871231008 -0.0072070797212 0
-0.00693495160051 -0.00236760118762 0
0.0022879691732 -0.000935354105238 0
0.00839889034184 -0.00135351407525 0
-0.0120755791434 -0.00246940742057 0
0.00812828584355 0.000535313383854 0
0.00924895959127 -0.0121671844227 0
-0.00640706985079 -0.0163494464878 0
-0.0128717474516 -0.00211353692433 0
0.0080333306403 -0.00170889747329 0
-0.0102723482298 -0.0102586273594 0
0.00545600098586 -0.000135927605591 0
-0.0166696376729 -0.00899238949855 0
0.0043977065181 -0.0177550109127 0
0.00797855533934 -0.00364786737597 0
-0.0232418738671 -0.0348037594887 0
-0.0158839387711 -0.0114928360714 0
0.0187620555752 -0.0182409202839 0
0.00671561084199 -0.0759575919284 0
0.00583860063455 -0.00377383807027 0
0.00448870175377 -0.140052973836 0
0.0136199306341 -0.036459995603 0
0.00728960336051 -0.000402745869096 0
-0.014959132419 -0.00358899227894 0
0.00450476729032 -0.000897896572205 0
0.0207674697277 -0.0466224492398 0
0.00800729111841 -0.133169548661 0
-0.0140467864852 -0.069316991581 0
-0.0106927447036 -0.0902069261099 0
0.00976188978742 -0.0912243530762 0
-0.0227530256296 -0.0499245974794 0
0.0193410388297 -0.0291627527973 0
0.00299075808522 -0.028163284202 0
0.00805393900877 -0.0709433212848 0
0.00571158248998 -0.000315530112331 0
0.00807551297305 -0.000975865781184 0
-0.0126904784203 -0.00284335773415 0
-0.0124764279216 -0.0829019400029 0
-0.013187540717 -0.0988962031444 0
0.00988807498471 -0.124034992831 0
0.01099680846 -0.114073086371 0
-0.0136552729556 -0.00288990540575 0
0.00508881750874 -0.000647019469303 0
0.0104675504444 -0.00118218843665 0
0.00780370212367 -0.00127484842926 0
-0.0133998455231 -0.00261211674613 0
0.00800668171832 0.000414168276639 0
0.00393304436992 -0.0105369737762 0
-0.00748158187527 -0.140380774951 0
-0.0190527094063 -0.059022578178 0
0.0175020533518 -0.0585412272399 0
0.0076924186019 0.000492297497468 0
0.0194732366788 -0.0588724554618 0
-0.00776427368452 -0.0175574081364 0
-0.0120703209044 -0.00198463348188 0
0.00843922822087 -0.00174044839174 0
-0.00556095404504 -0.11169146179 0
0.0133306893781 -0.0966061739214 0
-0.0200307023061 -0.072906432362 0
-0.0151514907408 -0.00509068927554 0
0.00746706445637 0.000187209664231 0
0.0076369011943 6.27661331226e-05 0
0.00804976118381 -0.000432623936802 0
-0.0125642695771 -0.00354869373165 0
0.00802024965171 0.000589718155767 0
0.00739778689176 0.000200810180644 0
-0.00663365308734 -0.0242477334554 0
0.0114836185692 -0.00226510866702 0
0.0137598309508 -0.00843306663984 0
-0.020951052754 -0.0657138111131 0
-0.00365656426545 -0.0932660243962 0
0.0153912859728 -0.0785831817893 0
-0.0199555191436 -0.019193108873 0
0.00518088160927 -0.102941699732 0
-0.0227255397468 -0.0287060379448 0
0.0156749665876 -0.0200631810939 0
-0.0215096803117 -0.0395395646295 0
-0.0146785407839 -0.0930365302704 0
0.00782647032512 -2.09984264628e-06 0
0.0173184566677 -0.0149117940318 0
-0.0136921424823 -0.00455933990195 0
-0.0170295517964 -0.0699739381475 0
0.00273426537779 -0.0831323428378 0
0.0193263537883 -0.0578322495651 0
0.00858741138546 -0.00322164055835 0
0.00976768789596 -0.0027543649529 0
-0.0181522477215 -0.064350385493 0
-0.00926764878232 -0.118581751217 0
0.00978127449566 -0.113319900106 0
0.00389792669335 -0.039181323279 0
0.00586077550415 -0.0538115291924 0
0.0139748850967 -0.0124041886739 0
-0.0183886514616 -0.0812289286298 0
0.0172627396936 -0.0779830670976 0
0.00017772738488 -0.104202383892 0
0.00820653827682 0.000289079443668 0
-0.00984755729133 -0.00644036167969 0
-0.0125406266881 -0.0137222527543 0
0.0118018956866 -0.00263195745608 0
0.0095458155776 -0.0218661313522 0
0.0146114304752 -0.0758273728135 0
0.00906154813749 -0.000114376448035 0
0.00808605589357 0.000467404705654 0
-0.013336060982 -0.106050592323 0
0.0113224769605 -0.106774733856 0
0.00700655331474 2.32389484343e-06 0
-0.0163809114391 -0.00502582035392 0
0.00852400175079 -0.0632177922121 0
-0.0139624732586 -0.00241974236163 0
0.00749227917352 -0.00169431261357 0
-0.017286255403 -0.0115728715439 0
-0.0223654732938 -0.0348625857209 0
-0.00907485536074 -0.00847272560363 0
-0.0201745349652 -0.0269110985157 0
0.00793565351316 0.000331745304318 0
-0.0134273324283 -0.00643964430185 0
0.00926052182492 -0.00102163743258 0
-0.00624099883086 -0.0015829168902 0
0.00199466303946 -0.00021638519875 0
-0.0160205805001 -0.00720815436427 0
0.00166172771138 -0.0164874862322 0
0.00823660962706 -0.00466458202354 0