# vtk DataFile Version 2.0
Generated with Solid Solver
ASCII
DATASET UNSTRUCTURED_GRID
POINTS 1163 float 
0.0 3.5 0.0
2.2 3.5 0.0
2.2 4.0 0.0
0.0 4.0 0.0
0.0687499999999 3.5 0.0
0.1375 3.5 0.0
0.20625 3.5 0.0
0.275 3.5 0.0
0.343749999999 3.5 0.0
0.412499999999 3.5 0.0
0.481249999999 3.5 0.0
0.549999999999 3.5 0.0
0.618749999998 3.5 0.0
0.687499999998 3.5 0.0
0.756249999998 3.5 0.0
0.824999999998 3.5 0.0
0.893749999998 3.5 0.0
0.962499999997 3.5 0.0
1.03125 3.5 0.0
1.1 3.5 0.0
1.16875 3.5 0.0
1.2375 3.5 0.0
1.30625 3.5 0.0
1.375 3.5 0.0
1.44375 3.5 0.0
1.5125 3.5 0.0
1.58125 3.5 0.0
1.65 3.5 0.0
1.71875 3.5 0.0
1.7875 3.5 0.0
1.85625 3.5 0.0
1.925 3.5 0.0
1.99375 3.5 0.0
2.0625 3.5 0.0
2.13125 3.5 0.0
2.2 3.56430812579 0.0
2.2 3.6227083524 0.0
2.2 3.67574343203 0.0
2.2 3.72390623714 0.0
2.2 3.76764438299 0.0
2.2 3.80736436348 0.0
2.2 3.84343531161 0.0
2.2 3.87619247056 0.0
2.2 3.90594026646 0.0
2.2 3.93295517223 0.0
2.2 3.9574882542 0.0
2.2 3.97976750927 0.0
2.18000003888 4.0 0.0
2.15999995974 4.0 0.0
2.13999995594 4.0 0.0
2.12000003893 4.0 0.0
2.0999999813 4.0 0.0
2.07999993507 4.0 0.0
2.06000001965 4.0 0.0
2.04000002354 4.0 0.0
2.01999993997 4.0 0.0
1.99999999426 4.0 0.0
1.98000004623 4.0 0.0
1.95999996625 4.0 0.0
1.93999996787 4.0 0.0
1.92000005069 4.0 0.0
1.90000001292 4.0 0.0
1.87999994967 4.0 0.0
1.86000003245 4.0 0.0
1.84000003166 4.0 0.0
1.81999995194 4.0 0.0
1.80000002065 4.0 0.0
1.78000005962 4.0 0.0
1.75999997703 4.0 0.0
1.73999998149 4.0 0.0
1.72000006236 4.0 0.0
1.70000000651 4.0 0.0
1.67999995967 4.0 0.0
1.66000004242 4.0 0.0
1.64000004304 4.0 0.0
1.61999996152 4.0 0.0
1.6000000096 4.0 0.0
1.58000006667 4.0 0.0
1.55999998704 4.0 0.0
1.53999998381 4.0 0.0
1.52000006764 4.0 0.0
1.5000000299 4.0 0.0
1.47999996242 4.0 0.0
1.46000004337 4.0 0.0
1.4400000454 4.0 0.0
1.41999996386 4.0 0.0
1.40000002834 4.0 0.0
1.38000006734 4.0 0.0
1.35999998576 4.0 0.0
1.33999998537 4.0 0.0
1.32000006658 4.0 0.0
1.30000001585 4.0 0.0
1.27999996279 4.0 0.0
1.26000004759 4.0 0.0
1.24000004493 4.0 0.0
1.2199999616 4.0 0.0
1.20000000906 4.0 0.0
1.18000006792 4.0 0.0
1.15999998616 4.0 0.0
1.13999999119 4.0 0.0
1.12000007157 4.0 0.0
1.1 4.0 0.0
1.07999992843 4.0 0.0
1.06000000881 4.0 0.0
1.04000001384 4.0 0.0
1.01999993209 4.0 0.0
0.999999990948 4.0 0.0
0.98000003841 4.0 0.0
0.959999955072 4.0 0.0
0.939999952416 4.0 0.0
0.920000037214 4.0 0.0
0.899999984154 4.0 0.0
0.879999933427 4.0 0.0
0.860000014636 4.0 0.0
0.840000014246 4.0 0.0
0.819999932662 4.0 0.0
0.79999997166 4.0 0.0
0.780000036145 4.0 0.0
0.759999954604 4.0 0.0
0.73999995663 4.0 0.0
0.72000003758 4.0 0.0
0.699999970103 4.0 0.0
0.679999932361 4.0 0.0
0.660000016189 4.0 0.0
0.640000012962 4.0 0.0
0.61999993333 4.0 0.0
0.599999990406 4.0 0.0
0.58000003848 4.0 0.0
0.559999956964 4.0 0.0
0.539999957581 4.0 0.0
0.520000040329 4.0 0.0
0.499999993489 4.0 0.0
0.479999937647 4.0 0.0
0.460000018512 4.0 0.0
0.440000022972 4.0 0.0
0.419999940378 4.0 0.0
0.399999979352 4.0 0.0
0.380000048063 4.0 0.0
0.359999968347 4.0 0.0
0.339999967553 4.0 0.0
0.320000050328 4.0 0.0
0.299999987077 4.0 0.0
0.279999949312 4.0 0.0
0.260000032129 4.0 0.0
0.240000033752 4.0 0.0
0.219999953776 4.0 0.0
0.200000005737 4.0 0.0
0.180000060031 4.0 0.0
0.159999976465 4.0 0.0
0.139999980354 4.0 0.0
0.120000064926 4.0 0.0
0.100000018697 4.0 0.0
0.0799999610675 4.0 0.0
0.0600000440571 4.0 0.0
0.0400000402596 4.0 0.0
0.0199999611169 4.0 0.0
0.0 3.97976750927 0.0
0.0 3.9574882542 0.0
0.0 3.93295517223 0.0
0.0 3.90594026646 0.0
0.0 3.87619247056 0.0
0.0 3.84343531161 0.0
0.0 3.80736436348 0.0
0.0 3.76764438299 0.0
0.0 3.72390623714 0.0
0.0 3.67574343203 0.0
0.0 3.6227083524 0.0
0.0 3.56430812579 0.0
0.249757963562 3.75212589829 0.0
1.94999996706 3.74954522137 0.0
0.488710285893 3.75947702441 0.0
0.726520490699 3.7655965719 0.0
0.967283134849 3.7597072979 0.0
1.20619032017 3.75831098673 0.0
1.45842774915 3.76733088374 0.0
1.69012076678 3.7622332834 0.0
0.130754044069 3.86878249167 0.0
2.06924595593 3.86878249167 0.0
1.8299999918 3.84622455633 0.0
1.56816462369 3.85034872999 0.0
0.369913859351 3.84868157925 0.0
0.608733620231 3.84706187144 0.0
1.33069778866 3.84790908234 0.0
0.84323446252 3.84762979148 0.0
1.08873170817 3.84705870913 0.0
0.250539365135 3.87785524304 0.0
1.94967747948 3.87849609822 0.0
1.73218750075 3.8916046151 0.0
0.468661874066 3.89189322974 0.0
1.47574192429 3.89639134117 0.0
0.704258110321 3.8963912684 0.0
1.18331258449 3.8976320365 0.0
0.949999953744 3.89208018478 0.0
1.64795374468 3.91749779939 0.0
0.548928463645 3.91905583847 0.0
1.38619509199 3.91928594438 0.0
0.788926872841 3.91906062101 0.0
1.27071160784 3.91777932845 0.0
1.02999997296 3.91685174433 0.0
1.81733541416 3.69950870754 0.0
1.86999999106 3.91823503401 0.0
0.071252620538 3.93011431841 0.0
2.12874737946 3.93011431841 0.0
2.07400690796 3.74293885365 0.0
0.125993092043 3.74293885365 0.0
0.32995676804 3.92118147353 0.0
2.00999996712 3.92542383197 0.0
0.190000032884 3.92542383197 0.0
1.56698738743 3.72218882919 0.0
1.33000000474 3.72531695685 0.0
0.848014510843 3.71986098938 0.0
1.09024665585 3.72285801424 0.0
0.610276609989 3.72290563624 0.0
1.54999998543 3.92414142844 0.0
0.629999973146 3.92414137652 0.0
0.869999974031 3.92414141814 0.0
1.11000003579 3.92414141267 0.0
1.79030638642 3.92649353654 0.0
0.370434802927 3.72513294336 0.0
0.410903135411 3.92892991244 0.0
1.33000002597 3.93737911571 0.0
0.129927648482 3.94112154503 0.0
2.07007235152 3.94112154503 0.0
1.93000000928 3.93875927586 0.0
0.26999999072 3.93875927586 0.0
1.40966706061 3.83880068991 0.0
0.770332962441 3.83880062149 0.0
1.24904900022 3.84293377683 0.0
1.01033287484 3.83880060723 0.0
0.530342681434 3.83880307444 0.0
0.189895273961 3.63486992823 0.0
2.00989835291 3.62845703161 0.0
0.998888153878 3.61665036233 0.0
1.47894673873 3.61675180774 0.0
0.51733910646 3.62937665489 0.0
0.705112628302 3.618743723 0.0
1.66672137035 3.63168728155 0.0
1.18508242495 3.61871739348 0.0
1.71000003443 3.94408608591 0.0
0.489999965568 3.94463856597 0.0
1.44983363802 3.94422347836 0.0
0.729999997105 3.94465012565 0.0
1.21016639734 3.94422345842 0.0
0.928621800545 3.94440037102 0.0
2.00626203014 3.81543543551 0.0
0.193627962274 3.81528928332 0.0
1.66628164144 3.83559795895 0.0
1.75661718781 3.81065958113 0.0
1.61143779865 3.94859227761 0.0
0.991673865748 3.95161238438 0.0
0.0604617941233 3.86281264864 0.0
2.13953820588 3.86281264865 0.0
0.300965570716 3.8114148258 0.0
0.2970894797 3.66361086085 0.0
0.398842167194 3.60449226805 0.0
1.51000004877 3.95218393067 0.0
1.90135619383 3.81213273629 0.0
0.669405272842 3.95495208979 0.0
1.07142780558 3.94866325309 0.0
0.592085094025 3.94901139323 0.0
0.831051660929 3.94633985879 0.0
1.14940528892 3.9549521224 0.0
0.44409344258 3.82719938178 0.0
1.49646539728 3.82376850413 0.0
0.683434082651 3.82631713605 0.0
0.92337834777 3.8234861632 0.0
1.16343437877 3.82631615351 0.0
1.90749084149 3.65350700271 0.0
1.8278758005 3.95083911942 0.0
0.37243073327 3.95235211027 0.0
1.29345662549 3.60569899261 0.0
0.813407949226 3.60572380122 0.0
1.29317153636 3.96216077293 0.0
1.367704599 3.96055764734 0.0
1.97071235041 3.96038324024 0.0
0.22928764959 3.96038324024 0.0
2.10610581798 3.66047411138 0.0
0.0938941820177 3.66047411138 0.0
1.67000000105 3.95862953468 0.0
1.74869816704 3.96079301687 0.0
0.531976761939 3.96138655466 0.0
0.451361042387 3.96112774725 0.0
0.771976832233 3.96138887156 0.0
1.88843481911 3.95881554986 0.0
1.61277513709 3.78538823015 0.0
2.13311214501 3.79435403671 0.0
0.0668878549946 3.79435403671 0.0
1.76678797151 3.60286552601 0.0
0.311702446283 3.9611157379 0.0
1.02877762737 3.96159282031 0.0
1.40830122607 3.96143175203 0.0
1.25214210333 3.957355862 0.0
1.59476493393 3.9048774062 0.0
1.56950979124 3.96148017208 0.0
0.890017020275 3.96125792969 0.0
2.03089110475 3.96040268709 0.0
0.169108895255 3.96040268709 0.0
0.939722125942 3.68539157065 0.0
1.41686981874 3.69192854313 0.0
0.0426348006718 3.96101756902 0.0
2.15736519933 3.96101756902 0.0
1.36077308019 3.79177204211 0.0
0.817982383499 3.78962669257 0.0
1.05834720932 3.78780184893 0.0
0.578349529346 3.78781530011 0.0
1.77992711518 3.87652731382 0.0
0.417982153133 3.87594990465 0.0
1.84363633012 3.77741329286 0.0
1.52244994479 3.87704541475 0.0
0.657426528912 3.87734838249 0.0
1.13742651778 3.87734834025 0.0
0.898116026439 3.8800466833 0.0
1.56984259435 3.64465823131 0.0
1.08983016076 3.6446495206 0.0
0.609942357805 3.64483976081 0.0
1.29451769374 3.79627773068 0.0
0.0893439668432 3.96574839433 0.0
2.11065603316 3.96574839433 0.0
2.01422398896 3.86980625824 0.0
0.185776011038 3.86980625824 0.0
0.305957237756 3.87340573745 0.0
1.72977480551 3.68665973332 0.0
1.25418096296 3.69351129461 0.0
0.629999973146 3.96272981435 0.0
1.11000003579 3.96272983221 0.0
0.772975283819 3.69297597031 0.0
1.89089074715 3.86951346173 0.0
0.445448577516 3.69456159386 0.0
1.82621986864 3.89678318705 0.0
2.07135424223 3.81165410377 0.0
0.128645757768 3.81165410377 0.0
0.373320289473 3.89968791662 0.0
1.79000004014 3.96541718891 0.0
0.383302070088 3.78976392323 0.0
0.409457623385 3.96502881851 0.0
1.55531527123 3.78787141386 0.0
1.34861332978 3.89383287415 0.0
0.593245985735 3.89483466551 0.0
0.833245353375 3.89479604398 0.0
1.0732444554 3.8948349405 0.0
0.911896623122 3.59194725763 0.0
0.187580554011 3.70699710313 0.0
2.01241944599 3.70699710313 0.0
1.39201907571 3.59233063354 0.0
2.09635520798 3.90516200201 0.0
0.103644792024 3.90516200201 0.0
1.89086147526 3.72621461413 0.0
1.02102684616 3.70044819701 0.0
1.49813234221 3.70194667869 0.0
0.53965669049 3.70593418829 0.0
1.63719578665 3.69772473547 0.0
0.685447658936 3.70127585046 0.0
1.16541741817 3.70128744764 0.0
0.901649266036 3.76287226775 0.0
0.992351690321 3.90662993531 0.0
1.69131894868 3.90657323657 0.0
1.9699561555 3.91599371502 0.0
0.230043844497 3.91599371502 0.0
1.61980840676 3.85005402918 0.0
2.04685187594 3.90639759008 0.0
0.153148124058 3.90639759008 0.0
0.512139828486 3.90538520837 0.0
1.43057458921 3.90702644399 0.0
0.749149996349 3.90689574876 0.0
[...]
POINT_DATA 1163
VECTORS Displacement float
0.0 0.0 0
0.0 0.0 0
0.0100463956629 -0.00184541239754 0
-0.0110593042112 -0.00154379973333 0
0.0 0.0 0
0.0 0.0 0
0.0 0.0 0
0.0 0.0 0
0.0 0.0 0
0.0 0.0 0
0.0 0.0 0
0.0 0.0 0
0.0 0.0 0
0.0 0.0 0
0.0 0.0 0
0.0 0.0 0
0.0 0.0 0
0.0 0.0 0
0.0 0.0 0
0.0 0.0 0
0.0 0.0 0
0.0 0.0 0
0.0 0.0 0
0.0 0.0 0
0.0 0.0 0
0.0 0.0 0
0.0 0.0 0
0.0 0.0 0
0.0 0.0 0
0.0 0.0 0
0.0 0.0 0
0.0 0.0 0
0.0 0.0 0
0.0 0.0 0
0.0 0.0 0
0.00251555186901 -0.00196470794396 0
0.00452157704176 -0.00261622439976 0
0.00613606030621 -0.00275326108945 0
0.00726035826963 -0.00264284682395 0
0.00804071999642 -0.00245265748947 0
0.00857745431248 -0.00225060790995 0
0.00892977276819 -0.0020915921469 0
0.00920033168836 -0.0019735885987 0
0.00940246286479 -0.00189764426569 0
0.00957645121869 -0.00186288053921 0
0.00973919744041 -0.00184806870237 0
0.00989650962423 -0.00184487401725 0
0.0100469450618 -0.00169597024744 0
0.0100459081286 -0.0015390888777 0
0.0100376935229 -0.00137487512868 0
0.0100185260406 -0.00120499008445 0
0.00998601361108 -0.00103371153595 0
0.00993873512353 -0.000868144560021 0
0.00987334795784 -0.000707226662034 0
0.00979285803663 -0.000564428717148 0
0.00969217387925 -0.000435076193034 0
0.00957836873948 -0.000331938563467 0
0.00943932785861 -0.000251917100254 0
0.00928278133167 -0.0002077632932 0
0.00911178850913 -0.000202957214245 0
0.00891437860153 -0.00023556714435 0
0.00870380220751 -0.000319769917603 0
0.00846064644118 -0.000452351674492 0
0.00819951286059 -0.000650493732825 0
0.00791006143288 -0.000908407976741 0
0.00759885972047 -0.0012501627829 0
0.00724306140564 -0.00167579407564 0
0.00686782698395 -0.00220095365261 0
0.00648113796093 -0.00283744972834 0
0.00604166876939 -0.00357813845977 0
0.00558052905642 -0.00446837504383 0
0.00506221985292 -0.00550925371691 0
0.00454626830074 -0.00672602082792 0
0.00396601433661 -0.00813065645402 0
0.00335723003824 -0.00977150853732 0
0.00271949498538 -0.0116525341904 0
0.00211779899787 -0.0138086367799 0
0.0014956187293 -0.0163177016655 0
0.000782919814524 -0.0191769197415 0
0.000151409475375 -0.0224601757847 0
-0.000472771198032 -0.0262659898641 0
-0.000988398241976 -0.0306852324779 0
-0.00138236741408 -0.0358791342588 0
-0.00147383798876 -0.0420569590896 0
-0.000797595186329 -0.0498693429666 0
0.000898750121813 -0.0596635065761 0
0.00277523048661 -0.0687332313613 0
0.0044307487419 -0.0774662305042 0
0.00594424143497 -0.0855971635521 0
0.00718432895728 -0.0933143191783 0
0.00829102562571 -0.100550049433 0
0.00904999191619 -0.107380841694 0
0.00954837146596 -0.113728892475 0
0.00978605192091 -0.119700285816 0
0.00983716652598 -0.125169907677 0
0.00961131845149 -0.130180258906 0
0.00918964012192 -0.134694367712 0
0.00857015565279 -0.13871582657 0
0.00775788678685 -0.142231949603 0
0.0067594079459 -0.145227225793 0
0.00560787084494 -0.147695874354 0
0.00432818276132 -0.149625350821 0
0.00292117961781 -0.151008363103 0
0.00144185836268 -0.151826707133 0
-0.000124231295303 -0.152039988798 0
-0.00182666113908 -0.151831737538 0
-0.00335919734706 -0.150993520778 0
-0.00476046062328 -0.149602330147 0
-0.00604586106377 -0.147661004292 0
-0.00720192792837 -0.145182934806 0
-0.00820847540191 -0.142176470597 0
-0.00905353712151 -0.138645293727 0
-0.00968975831569 -0.134610180827 0
-0.0101828871328 -0.130065567324 0
-0.0103930547896 -0.125044136317 0
-0.0103775589368 -0.119539752383 0
-0.0101142521307 -0.11359530883 0
-0.00960561309522 -0.107225655605 0
-0.00883743758026 -0.100379560972 0
-0.00786189799841 -0.0930899325035 0
-0.00655893785606 -0.0853712864704 0
-0.0051080974398 -0.077207494669 0
-0.00346167196964 -0.0684344477772 0
-0.00161594028974 -0.0593266764369 0
0.000121157422036 -0.0495143403638 0
0.000616879087537 -0.041947952818 0
0.000374688923305 -0.035758528955 0
-0.000104284907096 -0.0306187028874 0
-0.000659555872179 -0.0262729957782 0
-0.00127397128565 -0.0225597841072 0
-0.00197365883814 -0.0192868638114 0
-0.00264611375258 -0.0164590461885 0
-0.00338948822814 -0.0140079174398 0
-0.00406380533926 -0.0119011287384 0
-0.00473754350668 -0.0100844201577 0
-0.00534610768691 -0.00849987400194 0
-0.00596103799119 -0.0071372123896 0
-0.00656301447974 -0.00598086749192 0
-0.00709865716968 -0.00499158181327 0
-0.00760714321395 -0.00417124648038 0
-0.00807920980433 -0.00347698748516 0
-0.00852223075846 -0.00291349095195 0
-0.00891257831946 -0.00245110500483 0
-0.00928379742937 -0.00209319819129 0
-0.00960701594764 -0.00181378266208 0
-0.0099049104153 -0.00161256322662 0
-0.0101700105854 -0.00148247237517 0
-0.0103876627251 -0.0013978232801 0
-0.0105804048161 -0.00136407183749 0
-0.0107341852789 -0.00135628671218 0
-0.0108585620335 -0.00138274556112 0
-0.0109479328423 -0.00141707071695 0
-0.0110087435908 -0.00146116845398 0
-0.0110440759843 -0.00150131821363 0
-0.0110588924269 -0.00152980133235 0
-0.0110604122774 -0.00154381351358 0
-0.0110615911411 -0.00154270863574 0
-0.0110788017446 -0.00154812068437 0
-0.0111183852398 -0.0015750610768 0
-0.0111743692197 -0.00163906799191 0
-0.0112201540417 -0.00178099410385 0
-0.0111884208393 -0.0020048205827 0
-0.0110597143598 -0.00231326398475 0
-0.0106595051829 -0.0027151997593 0
-0.00988491870598 -0.00312736136758 0
-0.00857036005986 -0.00346216239087 0
-0.00644870238367 -0.00344991019683 0
-0.00364720931599 -0.00268874010709 0
-0.0122850185366 -0.00186980038578 0
0.00896250523087 -0.000402971848743 0
-0.018636319001 -0.0125624583767 0
-0.0210040088246 -0.0450627813846 0
-0.00635797913959 -0.0687369186288 0
0.0130841430592 -0.0621493066041 0
0.0213094939884 -0.0291065897786 0
0.0147087429587 -0.00570308335343 0
-0.0114093364939 -0.00130071941987 0
0.00925444114709 -0.000752469322267 0
0.0107250589811 -0.00102607180541 0
0.016695815165 -0.0171175190511 0
-0.0138857221305 -0.00515309446377 0
-0.0208342119921 -0.03340996544 0
0.0197523119713 -0.0652670389329 0
-0.0158835475627 -0.0826661912662 0
0.0040306565621 -0.0972591600185 0
-0.0117569671734 -0.00172660129823 0
0.0095641048016 -0.000107579807032 0
0.0107893348109 -0.00367926316731 0
-0.0138600409974 -0.012402652751 0
0.0169362738818 -0.03536440486 0
-0.0193733005626 -0.0628674713684 0
0.0111099806355 -0.105367382291 0
-0.00777634060764 -0.109448881677 0
0.0102940753591 -0.00881729747867 0
-0.0134565578495 -0.0238201881627 0
0.0168110175248 -0.0635362742806 0
-0.0162571249689 -0.0904657823183 0
0.0150611148385 -0.0951621099397 0
-0.00109540885452 -0.121792728835 0
0.0104176476253 -0.0016527379202 0
0.00942250060747 -0.000380083871346 0
-0.0111305583319 -0.00147271080767 0
0.00956205302465 -0.00127532556111 0
0.0078656847621 -0.000884287870725 0
-0.0106897476057 -0.00143987327275 0
-0.0108711686781 -0.00350103437666 0
0.00945486157868 -0.000298205182865 0
-0.0109720270968 -0.00127051115059 0
0.018097111665 -0.0133148741167 0
0.0187705995572 -0.0407626713306 0
-0.0143123904558 -0.0497514434403 0
0.00388383442235 -0.0585164740052 0
-0.0206379998355 -0.0231804281525 0
0.0113836611137 -0.0204887754218 0
-0.0157272775651 -0.0435377869992 0
-0.0126234880543 -0.109194190879 0
0.00542813943676 -0.121898348759 0
0.00925782786584 -0.00169851019522 0
-0.0146507924471 -0.00480130024325 0
-0.0105907133488 -0.00751315396382 0
0.0150289351656 -0.0841798934418 0
-0.0109866784846 -0.00128898266264 0
0.00957116457917 -0.000746397769737 0
0.00929528695556 -9.05464393988e-05 0
-0.0104794018702 -0.00202615022085 0
0.0211902706128 -0.0460994228002 0
-0.0197526705891 -0.0674315986655 0
0.0161534387063 -0.0795273109801 0
-0.00285414427674 -0.095019007283 0
-0.0187135515692 -0.0195135095312 0
-0.00786086922102 -0.00117828339658 0
0.0052594749691 -0.000518784376204 0
-0.00240077606005 -0.0288052276433 0
0.013766288011 -0.0120669035114 0
-0.0140573356402 -0.00870238958701 0
-0.0140193026112 -0.0181047973708 0
0.0114767154273 -0.00462061540536 0
0.0075836969494 -0.0271464306546 0
0.00840005340569 -0.0047013755968 0
-0.00954212988503 -0.0148868139592 0
0.0121540841353 -0.0447572002087 0
-0.0149824935582 -0.0791800757645 0
0.0114246969685 -0.115356867493 0
-0.00864881933483 -0.124604827042 0
0.00913116224266 -0.000367029625234 0
-0.0118596106862 -0.00134368316409 0
0.0142666941106 -0.00741200349489 0
0.0125155149554 -0.00295246594614 0
0.00791843909586 -0.0122771027292 0
-0.00405490058134 -0.132849358342 0
-0.0113107984777 -0.00163601721762 0
0.00914520649271 -0.00143839636949 0
-0.0132978972615 -0.00277659462042 0
-0.010969558867 -0.00236246445783 0
-0.00994225693139 -0.00362869320941 0
0.00860870621673 -0.0283132219907 0
0.0100355791311 -0.000383446973675 0
-0.0126718178546 -0.0593909502927 0
0.00228033137966 -0.132613876788 0
-0.0107511783518 -0.0335068954166 0
-0.0134664790787 -0.107730737161 0
0.00788069958349 -0.128433549846 0
-0.0163922424604 -0.00983220560986 0
0.0201847484353 -0.027306875276 0
-0.0221034295857 -0.047102764829 0
-0.0102665566226 -0.085401333257 0
0.0102877731219 -0.0856822767337 0
0.00734710742622 -0.000741361983937 0
0.00872680400671 -0.000933147397501 0
-0.00929925727657 -0.00530512077472 0
0.0109489588379 -0.0200213483963 0
-0.0104247892602 -0.0210117484299 0
0.0126471376979 -0.100572039302 0
0.0121412845607 -0.076300966886 0
0.00935768067881 -0.000149365013243 0
-0.010304467521 -0.00154954447094 0
0.00575468935372 -0.00106549312228 0
-0.00816089338737 -0.00150319099545 0
0.00725416824921 -0.00714282692863 0
0.00783313927389 -0.0030300009937 0
-0.0076072328168 -0.0209297275808 0
-0.00796189539459 -0.0107889300043 0
-0.013403425934 -0.0959159908242 0
0.00894778384052 -0.000264195738376 0
0.0171597096659 -0.0112154038979 0
0.00850582408485 -0.00146054486889 0
-0.0111286209499 -0.00179015722106 0
0.00767743830253 -0.00197952295472 0
-0.00950482254341 -0.00301328402673 0
-0.00111089193922 -0.137698740706 0
0.010994306652 -0.061278681331 0
0.012416645462 -0.110181715202 0
0.0122094662893 -0.0141024367495 0
0.00649161509057 -0.0175073641163 0
-0.0105111608067 -0.124266744621 0
0.0095693952814 -0.000451579872217 0
-0.0107086134474 -0.00127557240915 0
-0.00748309169245 -0.0462098389019 0
0.0190035834222 -0.0255222930458 0
-0.0110688066102 -0.001527430482 0
0.00976038235625 -0.00151797549601 0
0.0210419195147 -0.0486680649806 0
-0.0175287581901 -0.0638268267721 0
0.00138418552778 -0.0789264940195 0
-0.0212589549077 -0.0242259729799 0
0.0107620935186 -0.00204491250371 0
-0.0137572309994 -0.00798416934389 0
0.0108741079837 -0.0010697752136 0
0.0166720177525 -0.0248607491104 0
-0.020346381675 -0.0474238589772 0
0.00796104409111 -0.104019375878 0
-0.0118343025759 -0.10005536688 0
0.0145674493131 -0.0092412198668 0
0.00295724255068 -0.0362711478322 0
-0.0163297859481 -0.0154027872983 0
0.0187219699464 -0.0607689057021 0
-0.0109948544696 -0.00141359794858 0
0.00975683143581 -0.00111045191706 0
0.00936620939808 -0.000340445119619 0
-0.0115584386626 -0.00126355131431 0
-0.0122754413945 -0.00279311564381 0
0.0123174623849 -0.00360702215048 0
0.0142769659484 -0.0415789394104 0
-0.00971101892997 -0.0452003668107 0
0.00513920934599 -0.135297622778 0
-0.0170712325897 -0.0367059873205 0
0.00990523278814 -0.000273041282164 0
-0.0160393659205 -0.0077407322064 0
0.0099042651066 -0.00096208375011 0
0.00882480326252 -0.00081142241452 0
-0.0114365547532 -0.00136704539568 0
-0.0119725706694 -0.00530381736312 0
0.00806515399723 -0.0017673128495 0
-0.0153380987144 -0.00575449860886 0
-0.00812585934652 -0.00749632483033 0
0.0190232362585 -0.0171752190982 0
0.0184299191498 -0.0701845817139 0
-0.0174006176304 -0.0325716518287 0
-0.0154664367656 -0.0939291328349 0
0.00258047746422 -0.113760610421 0
-0.00574949809372 -0.0210634136002 0
-0.0104556299831 -0.00136449759379 0
0.00751237469587 -0.00054335499832 0
0.0114469616583 -0.0132919511112 0
0.00942392220389 -0.000979649182697 0
-0.0112202532542 -0.00136576112636 0
0.0094749070676 -0.000741274770363 0
-0.00165518900468 -0.0524008576029 0
0.0189965249484 -0.0184577688143 0
-0.0187971527983 -0.0148198673939 0
0.0153781044375 -0.00762959184663 0
-0.0196666344337 -0.0291343275224 0
0.00916551416546 -0.0494359670137 0
-0.0116226684845 -0.0656916110747 0
-0.00426227295134 -0.11715503172 0
0.0105280932195 -0.00575513868968 0
0.00943862237838 -0.000122534098589 0
-0.0110512938663 -0.00149911160912 0
0.015011882694 -0.0113024314686 0
0.00942866640675 -0.000553441436518 0
-0.0111983772714 -0.00123893397138 0
-0.0138308911233 -0.0177794836899 0
0.0173199458347 -0.048352042303 0
-0.0180092274861 -0.077333793124 0
0.0134267597771 -0.102005770321 0
0.00737320550677 -0.00155122712995 0
-0.0100823048433 -0.00197732835889 0
-0.00645641193379 -0.135509200656 0
-0.0112206729384 -0.00161858538464 0
0.00938563923552 -0.00157760963459 0
0.00691104537171 -0.0364716093469 0
-0.011686377256 -0.0732887401038 0
0.00946263978878 -0.127422597137 0
-0.0123590376362 -0.00174416764547 0
-0.0135814421422 -0.00311939696789 0
0.0174128539108 -0.0799222620676 0
0.0095499091099 -0.000203086315031 0
0.01218949529 -0.0900762229548 0
0.0124568562677 -0.00277559967612 0
0.00649410398926 -0.0743192285974 0
-0.0221254897521 -0.0326195486679 0
0.0128547124366 -0.034812723492 0
-0.0164480479277 -0.0662348538544 0
0.0100636598653 -0.11643905847 0
0.00628911576461 -0.00972772738412 0
-0.0141168770442 -0.0727574091737 0
0.00524446578973 -0.000897616832772 0
0.00914428110986 -0.00012584404168 0
-0.00985057907167 -0.00209481893955 0
-0.00694757173977 -0.0260875624819 0
-0.0128058206003 -0.104806842734 0
0.0060261411802 -0.0220157787995 0
-0.0115659551797 -0.119941199842 0
0.00864666895621 -0.000506002695804 0
0.00968865252209 -0.000755782801547 0
-0.0108650245502 -0.00131136399307 0
-0.00890701073867 -0.00387630334194 0
0.0127437250506 -0.00436084181901 0
0.00947405765154 -0.000267272064106 0
-0.010421895146 -0.00138557378502 0
-0.0168837800718 -0.0135916213604 0
0.0204850341432 -0.0362691978271 0
-0.0211983124211 -0.0586433671626 0
0.012885412803 -0.0863038507289 0
-0.00699736749244 -0.0952086079649 0
0.00426885112154 -0.000572468091433 0
-0.00573761060512 -0.00121482109673 0
0.00964612678351 -0.00291214681257 0
-0.00635339273617 -0.123316289616 0
-0.0116336856881 -0.0105324319006 0
0.0167237695265 -0.0839329541843 0
-0.0178800107864 -0.0805846834277 0
-0.000447057362202 -0.106163485945 0
-0.0179450524118 -0.0246508294997 0
-0.00442134685957 -0.00081521571788 0
0.00300944954794 -0.000503833422773 0
-0.00679285415965 -0.00192959527717 0
0.00952431815105 -0.000157797669901 0
-0.0113471103919 -0.00254665123774 0
0.0204738873671 -0.0224611995693 0
0.0200016316906 -0.0571479989815 0
-0.0105860923218 -0.111462936088 0
-0.0167249766056 -0.0080146324556 0
0.0130681578939 -0.0263448101621 0
-0.0174583744462 -0.0537988984242 0
0.00811959347813 -0.116314494012 0
0.00899732839915 -0.00106915109076 0
-0.0113921614465 -0.00147649221092 0
0.00702994324635 -0.00479824127637 0
0.0098282990473 -0.0165570605927 0
0.00853203981551 -0.000551114192166 0
-0.0114336638043 -0.00133654440007 0
-0.00678699138307 -0.0150039070136 0
0.00809606852164 -0.044158942179 0
-0.0124025095819 -0.0820135759343 0
-0.00804147049195 -0.133285129975 0
0.0105587854177 -0.122840343177 0
0.0164958506591 -0.052543352286 0
0.0127063823281 -0.00758927472238 0
0.00876534495289 -0.00173156243484 0
-0.0112140223342 -0.0019168646831 0
0.0203289880438 -0.0339362578911 0
0.0069365964827 -0.00327337122135 0
0.0116407172388 -0.00170533837096 0
0.00305674208468 -0.0142132358365 0
0.0159638216148 -0.0278436715236 0
-0.00868854248205 -0.00786526788359 0
-0.0117715511311 -0.0358803609198 0
-0.0106847209983 -0.00179819099101 0
-0.0183861626902 -0.0485276629943 0
-0.0140979772281 -0.00402723745364 0
0.0146158004746 -0.0177091365928 0
-0.00847762161954 -0.0039901829151 0
-0.00471601265914 -0.00155940325358 0
0.00324330777152 -0.00116070347573 0
0.0098032386036 -0.00133062591472 0
-0.0110358358574 -0.00148165485157 0
0.00997049726061 -0.000521907294688 0
0.00688672794884 -0.0157667002278 0
-0.00914600311256 -0.0130438040878 0
-0.0111379472641 -0.0015794358155 0
0.00956139854404 -0.00163218882038 0
-0.0097389862298 -0.00638137306706 0
0.00765846538031 -0.000569724069196 0
-0.0126760136871 -0.00393013751358 0
-4.69404621128e-05 -0.0187277556862 0
0.00974703933628 -0.00679947636521 0
-0.0198499724289 -0.0172865357587 0
-0.0123658554108 -0.00365392991459 0
0.021679468057 -0.0362037544026 0
-0.00314304199624 -0.0779614389068 0
0.00505959317557 -0.0126590464527 0
-0.00404697616997 -0.141550735747 0
0.0165958922833 -0.0733348539914 0
0.00917103121378 -0.000528248104182 0
-0.0116123630332 -0.00126121034555 0
0.00638790504579 -0.0020856409795 0
0.0162603764717 -0.0651527651778 0
0.000507072293842 -0.143466819807 0
-0.020247681016 -0.053809573253 0
-0.0181480966889 -0.0742770938679 0
0.000177608265254 -0.097437628727 0
-0.0196301451825 -0.025010607598 0
0.0210326326515 -0.0545718586871 0
0.00826410410832 -0.0700580447562 0
0.0113872175302 -0.111175356831 0
0.00818895583008 -0.00120924486866 0
0.00957064839384 -0.00100464756895 0
-0.0110764929654 -0.00136764253568 0
-0.00679509224977 -0.0375530272916 0
-0.00877713147191 -0.054858779149 0
0.0034347125267 -0.139566661809 0
0.00667548733495 -0.136442841751 0
-0.00971263346231 -0.00136637561264 0
0.00696831887957 -0.000814532094816 0
0.0141284187608 -0.00547291797882 0
0.00941618876948 -0.00127670805702 0
-0.0112189252428 -0.00149438553894 0
0.010291893183 -0.000492457588143 0
0.00329428948139 -0.0283483888324 0
-0.0114385996059 -0.117634210368 0
-0.022154420171 -0.0401510074894 0
0.0100797433327 -0.0715512286264 0
0.00809789737973 -0.00125444422451 0
0.0160611394846 -0.0855566105327 0
-0.00794879726503 -0.00614949938176 0
-0.0110634859809 -0.00154243509637 0
0.00984304234035 -0.00164359405281 0
-0.0137523981487 -0.0987773759442 0
0.00535332537355 -0.110672875408 0
-0.0188962677932 -0.0403962823928 0
-0.0118613798149 -0.0014661015057 0
0.0100542866678 -0.00060684246509 0
0.00945911247114 -0.000193059443739 0
0.00951241389458 -0.000538689076044 0
-0.0109771294347 -0.00124337868556 0
0.00926982902028 -0.000667762155471 0
0.00744852482543 -0.00236387448918 0
-0.00688420163511 -0.00902566351784 0
0.0155838811264 -0.00791084987113 0
0.0184790581613 -0.0220500806787 0
-0.0217986488737 -0.0401400120112 0
-0.012910542974 -0.0848096644728 0
0.00713351828189 -0.0919037003117 0
-0.0150303278431 -0.00721356814652 0
-0.00461022114954 -0.103905540362 0
-0.0181350380313 -0.0128126862064 0
0.0200397744705 -0.0447484395058 0
-0.0165520006804 -0.0171677894407 0
-0.0198208077465 -0.0698889967538 0
0.00944292146461 -0.000214992947401 0
0.021321814622 -0.0323581839185 0
-0.0113065749664 -0.00131403137488 0
-0.021678665336 -0.0506422165692 0
-0.00718345755426 -0.0815118241325 0
0.0130734017886 -0.0749017836348 0
0.0104915560177 -0.0114365918305 0
0.0126127204761 -0.0101826381345 0
-0.0136525434765 -0.0291763701192 0
-0.0151330489643 -0.0980926991842 0
0.00136020779481 -0.123142357177 0
0.0100874940994 -0.0859300756513 0
0.0110235857791 -0.0991352697552 0
0.018789274987 -0.0307418083285 0
-0.0211034791621 -0.0542769621023 0
0.0105457177052 -0.0970819722618 0
-0.00940972975216 -0.0992430296232 0
0.00921315885758 -0.000144724949247 0
-0.00977410027401 -0.00185340868402 0
-0.0105090953085 -0.00448181038656 0
0.0160481445631 -0.00802926845356 0
0.0144671345346 -0.0533794618948 0
0.0128989894668 -0.107587255203 0
0.0115874633191 -0.0031054224547 0
0.00893288305442 -0.000200373629546 0
-0.0101410796857 -0.0651536165944 0
0.00820300441376 -0.132471862786 0
0.00918452031026 -0.0003044427106 0
-0.0121992583105 -0.00156684365223 0
-0.000849490405691 -0.066559928475 0
-0.0112735890561 -0.00171980268606 0
0.00920504733692 -0.00167036272352 0
-0.0131651279567 -0.00376391085038 0
-0.0204341032971 -0.0190753750584 0
-0.00925468782516 -0.00252997358152 0
-0.0151645570183 -0.010637946508 0
0.00946673546861 -7.59686950678e-05 0
-0.0111850314707 -0.0017792203691 0
0.0117199852609 -0.00576712354448 0
-0.00430089042236 -0.000751738830065 0
0.00293397343739 -0.000365439437606 0
-0.0123630911646 -0.00209614712967 0
-0.00250589968293 -0.0163710509541 0