# vtk DataFile Version 2.0
Generated with Solid Solver
ASCII
DATASET UNSTRUCTURED_GRID
POINTS 1163 float 
0.0 3.5 0.0
2.2 3.5 0.0
2.2 4.0 0.0
0.0 4.0 0.0
0.0687499999999 3.5 0.0
0.1375 3.5 0.0
0.20625 3.5 0.0
0.275 3.5 0.0
0.343749999999 3.5 0.0
0.412499999999 3.5 0.0
0.481249999999 3.5 0.0
0.549999999999 3.5 0.0
0.618749999998 3.5 0.0
0.687499999998 3.5 0.0
0.756249999998 3.5 0.0
0.824999999998 3.5 0.0
0.893749999998 3.5 0.0
0.962499999997 3.5 0.0
1.03125 3.5 0.0
1.1 3.5 0.0
1.16875 3.5 0.0
1.2375 3.5 0.0
1.30625 3.5 0.0
1.375 3.5 0.0
1.44375 3.5 0.0
1.5125 3.5 0.0
1.58125 3.5 0.0
1.65 3.5 0.0
1.71875 3.5 0.0
1.7875 3.5 0.0
1.85625 3.5 0.0
1.925 3.5 0.0
1.99375 3.5 0.0
2.0625 3.5 0.0
2.13125 3.5 0.0
2.2 3.56430812579 0.0
2.2 3.6227083524 0.0
2.2 3.67574343203 0.0
2.2 3.72390623714 0.0
2.2 3.76764438299 0.0
2.2 3.80736436348 0.0
2.2 3.84343531161 0.0
2.2 3.87619247056 0.0
2.2 3.90594026646 0.0
2.2 3.93295517223 0.0
2.2 3.9574882542 0.0
2.2 3.97976750927 0.0
2.18000003888 4.0 0.0
2.15999995974 4.0 0.0
2.13999995594 4.0 0.0
2.12000003893 4.0 0.0
2.0999999813 4.0 0.0
2.07999993507 4.0 0.0
2.06000001965 4.0 0.0
2.04000002354 4.0 0.0
2.01999993997 4.0 0.0
1.99999999426 4.0 0.0
1.98000004623 4.0 0.0
1.95999996625 4.0 0.0
1.93999996787 4.0 0.0
1.92000005069 4.0 0.0
1.90000001292 4.0 0.0
1.87999994967 4.0 0.0
1.86000003245 4.0 0.0
1.84000003166 4.0 0.0
1.81999995194 4.0 0.0
1.80000002065 4.0 0.0
1.78000005962 4.0 0.0
1.75999997703 4.0 0.0
1.73999998149 4.0 0.0
1.72000006236 4.0 0.0
1.70000000651 4.0 0.0
1.67999995967 4.0 0.0
1.66000004242 4.0 0.0
1.64000004304 4.0 0.0
1.61999996152 4.0 0.0
1.6000000096 4.0 0.0
1.58000006667 4.0 0.0
1.55999998704 4.0 0.0
1.53999998381 4.0 0.0
1.52000006764 4.0 0.0
1.5000000299 4.0 0.0
1.47999996242 4.0 0.0
1.46000004337 4.0 0.0
1.4400000454 4.0 0.0
1.41999996386 4.0 0.0
1.40000002834 4.0 0.0
1.38000006734 4.0 0.0
1.35999998576 4.0 0.0
1.33999998537 4.0 0.0
1.32000006658 4.0 0.0
1.30000001585 4.0 0.0
1.27999996279 4.0 0.0
1.26000004759 4.0 0.0
1.24000004493 4.0 0.0
1.2199999616 4.0 0.0
1.20000000906 4.0 0.0
1.18000006792 4.0 0.0
1.15999998616 4.0 0.0
1.13999999119 4.0 0.0
1.12000007157 4.0 0.0
1.1 4.0 0.0
1.07999992843 4.0 0.0
1.06000000881 4.0 0.0
1.04000001384 4.0 0.0
1.01999993209 4.0 0.0
0.999999990948 4.0 0.0
0.98000003841 4.0 0.0
0.959999955072 4.0 0.0
0.939999952416 4.0 0.0
0.920000037214 4.0 0.0
0.899999984154 4.0 0.0
0.879999933427 4.0 0.0
0.860000014636 4.0 0.0
0.840000014246 4.0 0.0
0.819999932662 4.0 0.0
0.79999997166 4.0 0.0
0.780000036145 4.0 0.0
0.759999954604 4.0 0.0
0.73999995663 4.0 0.0
0.72000003758 4.0 0.0
0.699999970103 4.0 0.0
0.679999932361 4.0 0.0
0.660000016189 4.0 0.0
0.640000012962 4.0 0.0
0.61999993333 4.0 0.0
0.599999990406 4.0 0.0
0.58000003848 4.0 0.0
0.559999956964 4.0 0.0
0.539999957581 4.0 0.0
0.520000040329 4.0 0.0
0.499999993489 4.0 0.0
0.479999937647 4.0 0.0
0.460000018512 4.0 0.0
0.440000022972 4.0 0.0
0.419999940378 4.0 0.0
0.399999979352 4.0 0.0
0.380000048063 4.0 0.0
0.359999968347 4.0 0.0
0.339999967553 4.0 0.0
0.320000050328 4.0 0.0
0.299999987077 4.0 0.0
0.279999949312 4.0 0.0
0.260000032129 4.0 0.0
0.240000033752 4.0 0.0
0.219999953776 4.0 0.0
0.200000005737 4.0 0.0
0.180000060031 4.0 0.0
0.159999976465 4.0 0.0
0.139999980354 4.0 0.0
0.120000064926 4.0 0.0
0.100000018697 4.0 0.0
0.0799999610675 4.0 0.0
0.0600000440571 4.0 0.0
0.0400000402596 4.0 0.0
0.0199999611169 4.0 0.0
0.0 3.97976750927 0.0
0.0 3.9574882542 0.0
0.0 3.93295517223 0.0
0.0 3.90594026646 0.0
0.0 3.87619247056 0.0
0.0 3.84343531161 0.0
0.0 3.80736436348 0.0
0.0 3.76764438299 0.0
0.0 3.72390623714 0.0
0.0 3.67574343203 0.0
0.0 3.6227083524 0.0
0.0 3.56430812579 0.0
0.249757963562 3.75212589829 0.0
1.94999996706 3.74954522137 0.0
0.488710285893 3.75947702441 0.0
0.726520490699 3.7655965719 0.0
0.967283134849 3.7597072979 0.0
1.20619032017 3.75831098673 0.0
1.45842774915 3.76733088374 0.0
1.69012076678 3.7622332834 0.0
0.130754044069 3.86878249167 0.0
2.06924595593 3.86878249167 0.0
1.8299999918 3.84622455633 0.0
1.56816462369 3.85034872999 0.0
0.369913859351 3.84868157925 0.0
0.608733620231 3.84706187144 0.0
1.33069778866 3.84790908234 0.0
0.84323446252 3.84762979148 0.0
1.08873170817 3.84705870913 0.0
0.250539365135 3.87785524304 0.0
1.94967747948 3.87849609822 0.0
1.73218750075 3.8916046151 0.0
0.468661874066 3.89189322974 0.0
1.47574192429 3.89639134117 0.0
0.704258110321 3.8963912684 0.0
1.18331258449 3.8976320365 0.0
0.949999953744 3.89208018478 0.0
1.64795374468 3.91749779939 0.0
0.548928463645 3.91905583847 0.0
1.38619509199 3.91928594438 0.0
0.788926872841 3.91906062101 0.0
1.27071160784 3.91777932845 0.0
1.02999997296 3.91685174433 0.0
1.81733541416 3.69950870754 0.0
1.86999999106 3.91823503401 0.0
0.071252620538 3.93011431841 0.0
2.12874737946 3.93011431841 0.0
2.07400690796 3.74293885365 0.0
0.125993092043 3.74293885365 0.0
0.32995676804 3.92118147353 0.0
2.00999996712 3.92542383197 0.0
0.190000032884 3.92542383197 0.0
1.56698738743 3.72218882919 0.0
1.33000000474 3.72531695685 0.0
0.848014510843 3.71986098938 0.0
1.09024665585 3.72285801424 0.0
0.610276609989 3.72290563624 0.0
1.54999998543 3.92414142844 0.0
0.629999973146 3.92414137652 0.0
0.869999974031 3.92414141814 0.0
1.11000003579 3.92414141267 0.0
1.79030638642 3.92649353654 0.0
0.370434802927 3.72513294336 0.0
0.410903135411 3.92892991244 0.0
1.33000002597 3.93737911571 0.0
0.129927648482 3.94112154503 0.0
2.07007235152 3.94112154503 0.0
1.93000000928 3.93875927586 0.0
0.26999999072 3.93875927586 0.0
1.40966706061 3.83880068991 0.0
0.770332962441 3.83880062149 0.0
1.24904900022 3.84293377683 0.0
1.01033287484 3.83880060723 0.0
0.530342681434 3.83880307444 0.0
0.189895273961 3.63486992823 0.0
2.00989835291 3.62845703161 0.0
0.998888153878 3.61665036233 0.0
1.47894673873 3.61675180774 0.0
0.51733910646 3.62937665489 0.0
0.705112628302 3.618743723 0.0
1.66672137035 3.63168728155 0.0
1.18508242495 3.61871739348 0.0
1.71000003443 3.94408608591 0.0
0.489999965568 3.94463856597 0.0
1.44983363802 3.94422347836 0.0
0.729999997105 3.94465012565 0.0
1.21016639734 3.94422345842 0.0
0.928621800545 3.94440037102 0.0
2.00626203014 3.81543543551 0.0
0.193627962274 3.81528928332 0.0
1.66628164144 3.83559795895 0.0
1.75661718781 3.81065958113 0.0
1.61143779865 3.94859227761 0.0
0.991673865748 3.95161238438 0.0
0.0604617941233 3.86281264864 0.0
2.13953820588 3.86281264865 0.0
0.300965570716 3.8114148258 0.0
0.2970894797 3.66361086085 0.0
0.398842167194 3.60449226805 0.0
1.51000004877 3.95218393067 0.0
1.90135619383 3.81213273629 0.0
0.669405272842 3.95495208979 0.0
1.07142780558 3.94866325309 0.0
0.592085094025 3.94901139323 0.0
0.831051660929 3.94633985879 0.0
1.14940528892 3.9549521224 0.0
0.44409344258 3.82719938178 0.0
1.49646539728 3.82376850413 0.0
0.683434082651 3.82631713605 0.0
0.92337834777 3.8234861632 0.0
1.16343437877 3.82631615351 0.0
1.90749084149 3.65350700271 0.0
1.8278758005 3.95083911942 0.0
0.37243073327 3.95235211027 0.0
1.29345662549 3.60569899261 0.0
0.813407949226 3.60572380122 0.0
1.29317153636 3.96216077293 0.0
1.367704599 3.96055764734 0.0
1.97071235041 3.96038324024 0.0
0.22928764959 3.96038324024 0.0
2.10610581798 3.66047411138 0.0
0.0938941820177 3.66047411138 0.0
1.67000000105 3.95862953468 0.0
1.74869816704 3.96079301687 0.0
0.531976761939 3.96138655466 0.0
0.451361042387 3.96112774725 0.0
0.771976832233 3.96138887156 0.0
1.88843481911 3.95881554986 0.0
1.61277513709 3.78538823015 0.0
2.13311214501 3.79435403671 0.0
0.0668878549946 3.79435403671 0.0
1.76678797151 3.60286552601 0.0
0.311702446283 3.9611157379 0.0
1.02877762737 3.96159282031 0.0
1.40830122607 3.96143175203 0.0
1.25214210333 3.957355862 0.0
1.59476493393 3.9048774062 0.0
1.56950979124 3.96148017208 0.0
0.890017020275 3.96125792969 0.0
2.03089110475 3.96040268709 0.0
0.169108895255 3.96040268709 0.0
0.939722125942 3.68539157065 0.0
1.41686981874 3.69192854313 0.0
0.0426348006718 3.96101756902 0.0
2.15736519933 3.96101756902 0.0
1.36077308019 3.79177204211 0.0
0.817982383499 3.78962669257 0.0
1.05834720932 3.78780184893 0.0
0.578349529346 3.78781530011 0.0
1.77992711518 3.87652731382 0.0
0.417982153133 3.87594990465 0.0
1.84363633012 3.77741329286 0.0
1.52244994479 3.87704541475 0.0
0.657426528912 3.87734838249 0.0
1.13742651778 3.87734834025 0.0
0.898116026439 3.8800466833 0.0
1.56984259435 3.64465823131 0.0
1.08983016076 3.6446495206 0.0
0.609942357805 3.64483976081 0.0
1.29451769374 3.79627773068 0.0
0.0893439668432 3.96574839433 0.0
2.11065603316 3.96574839433 0.0
2.01422398896 3.86980625824 0.0
0.185776011038 3.86980625824 0.0
0.305957237756 3.87340573745 0.0
1.72977480551 3.68665973332 0.0
1.25418096296 3.69351129461 0.0
0.629999973146 3.96272981435 0.0
1.11000003579 3.96272983221 0.0
0.772975283819 3.69297597031 0.0
1.89089074715 3.86951346173 0.0
0.445448577516 3.69456159386 0.0
1.82621986864 3.89678318705 0.0
2.07135424223 3.81165410377 0.0
0.128645757768 3.81165410377 0.0
0.373320289473 3.89968791662 0.0
1.79000004014 3.96541718891 0.0
0.383302070088 3.78976392323 0.0
0.409457623385 3.96502881851 0.0
1.55531527123 3.78787141386 0.0
1.34861332978 3.89383287415 0.0
0.593245985735 3.89483466551 0.0
0.833245353375 3.89479604398 0.0
1.0732444554 3.8948349405 0.0
0.911896623122 3.59194725763 0.0
0.187580554011 3.70699710313 0.0
2.01241944599 3.70699710313 0.0
1.39201907571 3.59233063354 0.0
2.09635520798 3.90516200201 0.0
0.103644792024 3.90516200201 0.0
1.89086147526 3.72621461413 0.0
1.02102684616 3.70044819701 0.0
1.49813234221 3.70194667869 0.0
0.53965669049 3.70593418829 0.0
1.63719578665 3.69772473547 0.0
0.685447658936 3.70127585046 0.0
1.16541741817 3.70128744764 0.0
0.901649266036 3.76287226775 0.0
0.992351690321 3.90662993531 0.0
1.69131894868 3.90657323657 0.0
1.9699561555 3.91599371502 0.0
0.230043844497 3.91599371502 0.0
1.61980840676 3.85005402918 0.0
2.04685187594 3.90639759008 0.0
0.153148124058 3.90639759008 0.0
0.512139828486 3.90538520837 0.0
1.43057458921 3.90702644399 0.0
0.749149996349 3.90689574876 0.0
[...]
POINT_DATA 1163
VECTORS Displacement float
0.0 0.0 0
0.0 0.0 0
0.0107777316034 -0.00164637141037 0
-0.0104196091685 -0.00174597609866 0
0.0 0.0 0
0.0 0.0 0
0.0 0.0 0
0.0 0.0 0
0.0 0.0 0
0.0 0.0 0
0.0 0.0 0
0.0 0.0 0
0.0 0.0 0
0.0 0.0 0
0.0 0.0 0
0.0 0.0 0
0.0 0.0 0
0.0 0.0 0
0.0 0.0 0
0.0 0.0 0
0.0 0.0 0
0.0 0.0 0
0.0 0.0 0
0.0 0.0 0
0.0 0.0 0
0.0 0.0 0
0.0 0.0 0
0.0 0.0 0
0.0 0.0 0
0.0 0.0 0
0.0 0.0 0
0.0 0.0 0
0.0 0.0 0
0.0 0.0 0
0.0 0.0 0
0.003216499115 -0.00240700255733 0
0.00571688147641 -0.00312096845033 0
0.0076503167618 -0.00317777791962 0
0.00889985695594 -0.00292652620033 0
0.00968526567386 -0.00259801230922 0
0.0101468325549 -0.00227269167501 0
0.0103714775426 -0.00202213658663 0
0.0105051301269 -0.00183980595217 0
0.0105650504076 -0.00172407593877 0
0.0106075173113 -0.00167186988272 0
0.0106551781906 -0.00164990372336 0
0.0107137125957 -0.00164548377776 0
0.0107786331537 -0.00158125623516 0
0.010777394414 -0.00150472012759 0
0.0107653346857 -0.00141640820854 0
0.0107366015994 -0.00131858869197 0
0.010687170939 -0.00121749889297 0
0.0106145202132 -0.0011242470006 0
0.0105134467967 -0.00103710298136 0
0.0103883240518 -0.000977473552157 0
0.0102313978975 -0.000938254934163 0
0.0100537581327 -0.000939864437116 0
0.00983696019039 -0.000977735955779 0
0.00959314705526 -0.00107234549078 0
0.0093279386619 -0.00122909565312 0
0.00902304115153 -0.00144666577676 0
0.0087006755444 -0.00174613925041 0
0.00833139941403 -0.00212440112436 0
0.0079375239065 -0.0026076931308 0
0.00750821326944 -0.00318867413726 0
0.00705171622537 -0.00390338336204 0
0.00653615562753 -0.00475349776276 0
0.00600421379564 -0.00576381752076 0
0.00546737951404 -0.00694911838394 0
0.00486543683154 -0.00831151090884 0
0.00425112340582 -0.00990740148565 0
0.0035713846653 -0.011760039786 0
0.00292928530919 -0.0138927798873 0
0.00222560323089 -0.0163467259771 0
0.00150539672642 -0.0191948099214 0
0.000805151790622 -0.0224645231433 0
0.000244225235787 -0.0262214097498 0
-0.000239130873739 -0.0306048145665 0
-0.000757927951334 -0.0357831935749 0
-0.000841553908891 -0.0419152757692 0
-0.00030465610266 -0.0496045725173 0
0.00135166534151 -0.0594468674312 0
0.00315882474287 -0.0685644408277 0
0.0048419106516 -0.0773057802995 0
0.00641266010924 -0.0854231334549 0
0.00763915641876 -0.0931601299617 0
0.00868040083643 -0.10042513746 0
0.00943103739087 -0.107272243622 0
0.0099566932885 -0.113632648983 0
0.0101952079526 -0.119587704143 0
0.0102491736136 -0.125073534976 0
0.0100334329238 -0.130093111369 0
0.00957892643974 -0.134626586813 0
0.00892472422999 -0.138662088137 0
0.00810725936583 -0.142184561179 0
0.00711045038459 -0.145185960489 0
0.00596574101431 -0.147661225146 0
0.00470924528621 -0.149596754933 0
0.00334747606321 -0.150988041583 0
0.00186666130459 -0.151821852933 0
0.000249316063657 -0.152043601128 0
-0.00142179880878 -0.151829198898 0
-0.00297196597426 -0.151008779186 0
-0.00437415295851 -0.14962569313 0
-0.00565029897983 -0.147695054194 0
-0.0068082524008 -0.145226276749 0
-0.00784083738052 -0.142224000227 0
-0.00868250957405 -0.138702271282 0
-0.00931865633491 -0.134674044737 0
-0.0097463230858 -0.130152406088 0
-0.00994347890027 -0.125147176057 0
-0.00994795741117 -0.119656477022 0
-0.00965592121606 -0.113703226796 0
-0.00919946910787 -0.107342516601 0
-0.00842452539543 -0.100511803645 0
-0.00739507958698 -0.0932458058711 0
-0.00612105889256 -0.0855255672596 0
-0.00464045660288 -0.0773877846196 0
-0.002906757141 -0.0686756170663 0
-0.00114173323135 -0.0595528045759 0
0.000668756093388 -0.0497999208516 0
0.00123166413428 -0.0420654988753 0
0.00110108565277 -0.035862114173 0
0.000668924164722 -0.0306794523455 0
9.71123119984e-05 -0.0262561031427 0
-0.00047173020452 -0.0224758490211 0
-0.00116422563618 -0.0191894154565 0
-0.00183395311052 -0.0163412797239 0
-0.00249723090871 -0.0138853438083 0
-0.00312686086376 -0.0117496116411 0
-0.00376599845953 -0.00987089384136 0
-0.00435543221635 -0.00823995521 0
-0.00495913414851 -0.0068391457152 0
-0.00549846446864 -0.00563669782949 0
-0.00601780727256 -0.00462002616543 0
-0.00647997283703 -0.00373948111747 0
-0.00693419353131 -0.00300051230458 0
-0.00736710495296 -0.00238907439922 0
-0.00774800624225 -0.00188070979075 0
-0.00810521089134 -0.0014793822691 0
-0.00843044209984 -0.00115582709247 0
-0.00873327354464 -0.000914518314894 0
-0.00899777331384 -0.000735642726783 0
-0.00924643675097 -0.000622994982863 0
-0.00946199529766 -0.000558521314456 0
-0.00965920115673 -0.000543925152969 0
-0.00983417856178 -0.000574154829474 0
-0.00997744793438 -0.000633012475177 0
-0.0101040150099 -0.000724490567129 0
-0.0102050468939 -0.000832314782841 0
-0.0102867812507 -0.000962394043865 0
-0.0103456607853 -0.00109758514972 0
-0.0103858540532 -0.0012393235163 0
-0.0104093219183 -0.00137866376125 0
-0.0104192378276 -0.00151047765881 0
-0.0104203269701 -0.00163286140512 0
-0.0103067156963 -0.00174527033477 0
-0.0101920887334 -0.00174897668981 0
-0.0100793344253 -0.00176699928526 0
-0.00996281169809 -0.00180968947509 0
-0.00982301340547 -0.00190393975331 0
-0.0096123958529 -0.00205178636834 0
-0.0093156046193 -0.00225351400657 0
-0.00881006609061 -0.00251319509248 0
-0.00802406919816 -0.00276815572611 0
-0.00683869480622 -0.00294506914525 0
-0.00507306934872 -0.00284717739402 0
-0.00283522622875 -0.00216722586509 0
-0.00997680409184 -0.000729526852751 0
0.0110309521141 -0.0011986491944 0
-0.0155176285315 -0.00674949478466 0
-0.0215558440981 -0.0326764309498 0
-0.0122465142142 -0.0636219236223 0
0.00736974850596 -0.0677844594158 0
0.0214755291488 -0.0415144025887 0
0.0177872608952 -0.0109801113993 0
-0.00991298369054 -0.000853625546051 0
0.0106393570919 -0.0010267495721 0
0.0127451295668 -0.00334676451991 0
0.0199498030652 -0.0302367652474 0
-0.011644899818 -0.00198903153461 0
-0.0177150630914 -0.0193884217841 0
0.0165429690183 -0.0805476915578 0
-0.0194598951166 -0.0680733197588 0
-0.00262969385942 -0.0978248112614 0
-0.0102294475115 -0.00045656369888 0
0.0109630027099 -0.000968901226177 0
0.0126706191807 -0.00858995624459 0
-0.0116497579883 -0.00585762171829 0
0.0191729298345 -0.0572164657427 0
-0.0178096134208 -0.0403931084462 0
0.00548385047331 -0.113304135409 0
-0.0130477691533 -0.0996764905789 0
0.0123137473066 -0.0177421579183 0
-0.0109709560595 -0.0123574094798 0
0.01646044236 -0.0867240788099 0
-0.0170538561434 -0.068149675649 0
0.0115728162666 -0.110468845835 0
-0.00713557100247 -0.117685842486 0
0.0129544402611 -0.00358046055775 0
0.0104363567984 -0.00209756381288 0
-0.0100713944653 -0.00129595203733 0
0.0106081827562 -0.00135644459429 0
0.00963605687119 -0.00117724709269 0
-0.00869357089599 -0.00100208464411 0
-0.00983605395342 -0.00109692492985 0
0.0104641254322 -0.000802043154368 0
-0.00994447653735 -0.000493693593627 0
0.0202338381693 -0.0211826460291 0
0.0154608096281 -0.0493888783761 0
-0.0179814036138 -0.0418402949379 0
-0.00227440618066 -0.0588949443512 0
-0.0187528381473 -0.014895727459 0
0.0147185780768 -0.0378193798649 0
-0.0122122506736 -0.0240051846292 0
-0.0154520611082 -0.0920845270686 0
-0.000670970069535 -0.124403273609 0
0.0101868958771 -0.0049171870648 0
-0.0118841098379 -0.0022612328052 0
-0.00958593789273 -0.00312146913569 0
0.0137698292874 -0.105033564011 0
-0.0100395773073 -0.000845110745234 0
0.0105267656901 -0.0010156712045 0
0.0100977369898 -0.00113513287115 0
-0.00968474949746 -0.000515324379449 0
0.0202985646595 -0.0634832384426 0
-0.0213098844159 -0.0504833689981 0
0.011073615697 -0.0900940809979 0
-0.0092672633469 -0.09061604832 0
-0.0154437253899 -0.0103957462204 0
-0.00616322967359 -0.000684448285979 0
0.00672171374125 -0.000862546827052 0
-0.0063813940877 -0.0273592011784 0
0.0138685975249 -0.0164703606482 0
-0.0120945397814 -0.00539418966418 0
-0.0142685505854 -0.0135732703666 0
0.0135061558009 -0.0076638008922 0
0.00364025800923 -0.0290284075608 0
0.00906818595093 -0.0104799291064 0
-0.00863045590866 -0.00722148714434 0
0.0146799387469 -0.0726275647549 0
-0.0130771277049 -0.0514905762348 0
0.00710840952962 -0.126978566629 0
-0.0124626306059 -0.111153007118 0
0.0108550351219 -0.000880524506296 0
-0.0099437767165 -0.000567645604564 0
0.0173553985016 -0.0146746216458 0
0.0152305523945 -0.00680912743786 0
0.00934368795677 -0.0238246833358 0
-0.00915999446471 -0.124701985967 0
-0.0098059709434 -0.00146329455088 0
0.0105352302791 -0.00152455458647 0
-0.0110289984222 -0.000944910943424 0
-0.00872817033651 -0.00114950783535 0
-0.00804532748917 -0.00209973546692 0
0.0122547622566 -0.0520223466529 0
0.0120583421733 -0.00166351028887 0
-0.00895310118051 -0.0329382730175 0
-0.00369873153378 -0.13182712251 0
-0.00840196186123 -0.0177735404436 0
-0.0143790335296 -0.0863584905928 0
0.00251542278965 -0.134890402592 0
-0.0135076899674 -0.00462650838833 0
0.0219990503491 -0.0426594436158 0
-0.0208399726456 -0.0310027435965 0
-0.0156526964329 -0.0762440237665 0
0.00396097610628 -0.090693627772 0
0.00929299965468 -0.00158257021605 0
0.00917839531127 -0.00335722861716 0
-0.00889414127344 -0.00197601780636 0
0.00832479792239 -0.0230878349261 0
-0.0122983369773 -0.0174231256678 0
0.0113540540592 -0.120129515015 0
0.0131769513723 -0.101634138849 0
0.0100289810867 -0.000893083468088 0
-0.00969488403918 -0.000447265924709 0
0.00725220834297 -0.00130987931102 0
-0.0064520604898 -0.00116763124955 0
0.00756549128932 -0.0147933739964 0
0.00792568272589 -0.00741660886117 0
-0.00705470915334 -0.0106828151811 0
-0.00784074494985 -0.00493604987816 0
-0.0117802308538 -0.0689553793167 0
0.00941574008871 -0.00176365598756 0
0.0202557347232 -0.0198175903742 0
0.0101590440345 -0.0016283616398 0
-0.0092822573865 -0.00152430406142 0
0.00950764236012 -0.0034294168323 0
-0.00914224133469 -0.000897955913911 0
-0.00670414375457 -0.132837071028 0
0.0131297448244 -0.089677212621 0
0.00957721116345 -0.125999978845 0
0.0152238229629 -0.0267216711515 0
0.00816995571399 -0.0330750475802 0
-0.0126489794117 -0.106691804301 0
0.0103624064844 -0.000875131528436 0
-0.00996478679829 -0.000614707895858 0
-0.0122861346076 -0.0420351825114 0
0.017862165013 -0.0336016405168 0
-0.010205467528 -0.00149392617962 0
0.0106585146661 -0.00149418914021 0
0.0183923328298 -0.0616871167166 0
-0.0206730946569 -0.0515028210191 0
-0.00525597308406 -0.0778034508923 0
-0.0183358533093 -0.0142404335834 0
0.0126386546974 -0.00549214969492 0
-0.0116227426945 -0.00342961241755 0
0.0133085656475 -0.00301279270217 0
0.0197611393164 -0.0423508169621 0
-0.0176193225282 -0.0286490434501 0
0.00164670514991 -0.10814640301 0
-0.0162781455482 -0.0871217262643 0
0.0160433124245 -0.0140288657925 0
-0.00188609661781 -0.0364984730096 0
-0.015048351379 -0.0103765462666 0
0.0144068040263 -0.0716384955762 0
-0.0101834013004 -0.00115521377901 0
0.0106136304501 -0.0012494162742 0
0.0107755318511 -0.000816603601685 0
-0.0100317176366 -0.00052595906648 0
-0.0105800433908 -0.000821198239017 0
0.0149986251598 -0.00674022225443 0
0.00979819508012 -0.0469273383383 0
-0.00676741143256 -0.0241534537315 0
-0.00063330124918 -0.138137362771 0
-0.0188823020906 -0.0287594953959 0
0.0114871731292 -0.0016988925861 0
-0.0132414522513 -0.00419814646604 0
0.0112914422439 -0.00339253588624 0
0.0104752398918 -0.00109502039366 0
-0.00960300191418 -0.000919076449245 0
-0.0104669275104 -0.00197910466545 0
0.0081202540979 -0.00501840447369 0
-0.0125645728714 -0.00250165387595 0
-0.00811002290348 -0.00313588724282 0
0.0215821924589 -0.0282243285636 0
0.0163709838908 -0.0893084113766 0
-0.0140360148779 -0.0177887390039 0
-0.0181009093611 -0.0760087307856 0
-0.00382099245179 -0.11324286091 0
-0.00851512561981 -0.0188904406835 0
-0.00837437890496 -0.000725840727573 0
0.00936133187313 -0.000986532945176 0
0.0103634833037 -0.0166126472696 0
0.0106006689137 -0.00116434351625 0
-0.00999025329686 -0.00104357931506 0
0.0117714227039 -0.00195999461022 0
-0.00738888053912 -0.0504286819725 0
0.019766475513 -0.0267037712708 0
-0.0162465517059 -0.00886345733236 0
0.0179549029535 -0.0129261075381 0
-0.019396406926 -0.0207067011104 0
0.00359625838828 -0.0522873757002 0
-0.0165919202844 -0.0577460796363 0
-0.00998955298221 -0.110197342076 0
0.0123815181199 -0.0123235572474 0
0.0105000964986 -0.000849419145378 0
-0.0099487788244 -0.000413774453964 0
0.0182761252941 -0.0212112369693 0
0.0105879003791 -0.000900076934736 0
-0.00998656043018 -0.000684031331098 0
-0.0114863530472 -0.00890773998989 0
0.0181479133524 -0.0720070668142 0
-0.0178834932794 -0.0541505468436 0
0.0088081511588 -0.113808852541 0
0.00906723291855 -0.00178481915538 0
-0.0081625218169 -0.00164854316319 0
-0.0104844648136 -0.123704903762 0
-0.00996224832021 -0.0015631627144 0
0.0105849018514 -0.00157386654422 0
0.0108310129436 -0.065810230214 0
-0.00799184195554 -0.0426666584515 0
0.00494785464621 -0.137310589604 0
-0.0103886027611 -0.000538629752908 0
-0.0110269552971 -0.00127090202333 0
0.0134038227366 -0.0940238976975 0
0.0113202941881 -0.00102228060205 0
0.0123181244416 -0.112834029933 0
0.0152810968945 -0.00597775970734 0
-4.1251396025e-05 -0.0761815919817 0
-0.0202318689792 -0.0208628053115 0
0.0159769373135 -0.0596402145645 0
-0.0139142678596 -0.0403448884279 0
0.00481564698559 -0.124822172621 0
0.00641778949664 -0.0192950921871 0
-0.0185744483118 -0.0621026503125 0
0.00667684939357 -0.00163672626546 0
0.00966466905229 -0.00119329259504 0
-0.00941144925502 -0.000560311953765 0
-0.00628373556491 -0.0136322164223 0
-0.0115512946382 -0.0793814004227 0
0.00844354112301 -0.0413350109464 0
-0.0125669912934 -0.0997487367997 0
0.00889270148686 -0.00236735724628 0
0.0105074562078 -0.00103280211974 0
-0.0100974286771 -0.000858068627467 0
-0.00876838249444 -0.00129379934357 0
0.015449157382 -0.00953706525554 0
0.0101517036878 -0.000854082726671 0
-0.00981659651591 -0.00049929762875 0
-0.0139107313453 -0.006728939786 0
0.0213442099587 -0.0542281303879 0
-0.0210360789569 -0.0405362908035 0
0.00700016355403 -0.093758131031 0
-0.0128802230321 -0.0876622346009 0
0.00549970973676 -0.00100400461833 0
-0.00446437856608 -0.00070392306653 0
0.0108880614889 -0.00722266593319 0
-0.0112749669162 -0.113358383042 0
-0.0101675053586 -0.00477175560191 0
0.0138642322015 -0.101237819647 0
-0.019943367397 -0.0622946090771 0
-0.00688254027097 -0.103181692124 0
-0.0146968353912 -0.0132294550715 0
-0.00341121213619 -0.000579494022625 0
0.00389426312467 -0.000680786056768 0
-0.00537233252553 -0.0011166804605 0
0.0106735235937 -0.0014528990607 0
-0.0100909305876 -0.000698446611049 0
0.021846674332 -0.0340134523869 0
0.0185664915815 -0.0763035385063 0
-0.0146681954316 -0.0977981424643 0
-0.0137251501423 -0.00401355423574 0
0.0165689227572 -0.0467952239998 0
-0.0142764823636 -0.0313333474911 0
0.00223711775106 -0.121629467416 0
0.010520773727 -0.00127105618798 0
-0.00971793892311 -0.00114265168729 0
0.00684345216671 -0.0106023649144 0
0.0125139247852 -0.0312758257277 0
0.0103549548928 -0.000964927383539 0
-0.00939001548097 -0.000714099341642 0
-0.00689451558335 -0.00732681955706 0
0.0116780601717 -0.0748948771308 0
-0.00933120492196 -0.0516066868707 0
-0.0113118843902 -0.119128204326 0
0.00664357704228 -0.134969765178 0
0.0117897838468 -0.0601132396721 0
0.0154572166569 -0.015351694044 0
0.0103176513704 -0.00181775142037 0
-0.00949710411389 -0.00175977710737 0
0.0185421043779 -0.0439562929473 0
0.00791188537825 -0.00486460525546 0
0.0141641778542 -0.00444711291755 0
0.000518160044769 -0.0146758362209 0
0.0133116180594 -0.0336667589615 0
-0.00838054240177 -0.00579579792075 0
-0.0150409141019 -0.0305882645754 0
-0.00850542500077 -0.000840121471389 0
-0.0205978133361 -0.0379959815849 0
-0.0116605276273 -0.0015081068599 0
0.0180107125564 -0.0321361132268 0
-0.00707307623101 -0.00248162005604 0
-0.00366251894528 -0.0012659446471 0
0.00415813675018 -0.00139662857587 0
0.010657949567 -0.00138565687703 0
-0.0102293421816 -0.00134006610414 0
0.0114802372623 -0.00236688187136 0
0.00441239582568 -0.017397978222 0
-0.00990869630777 -0.0103481016233 0
-0.0100730184155 -0.00159392025603 0
0.0106123725266 -0.00157434982707 0
-0.00861741470324 -0.00426261396695 0
0.00963282977118 -0.0012899632665 0
-0.0102091051112 -0.00201620949038 0
-0.00307888324369 -0.0182546049705 0
0.0102378518124 -0.00946279844507 0
-0.0166573941912 -0.0095258449829 0
-0.0106757528329 -0.00120242127196 0
0.0210069766349 -0.0498725302896 0
-0.0095245489493 -0.0742110933519 0
0.00499370729131 -0.0243921238278 0
-0.0087250371864 -0.132568972782 0
0.0154528560198 -0.0948954603844 0
0.0107230377894 -0.000904128115842 0
-0.00990584434011 -0.000671559454767 0
0.00773750796772 -0.00339705035719 0
0.0110269569744 -0.0736340829324 0
-0.00518167089693 -0.140361726052 0
-0.0217870621047 -0.0405995968654 0
-0.0208421434036 -0.058597678467 0
-0.006425278115 -0.0951791418392 0
-0.0163022985344 -0.0137716239386 0
0.0188781609182 -0.0709096063575 0
0.0114016172601 -0.098849207524 0
0.0099011859469 -0.129628800634 0
0.0103065488643 -0.00244555203582 0
0.0105798077505 -0.00117613645625 0
-0.0100633254844 -0.00106284279001 0
-0.00524664319335 -0.0199752916243 0
-0.00531061742672 -0.0291466669565 0
-0.00243034284615 -0.140195767116 0
0.00128070170731 -0.141780969171 0
-0.00776526690778 -0.000937369794115 0
0.00868816590709 -0.00111053809799 0
0.0171799477673 -0.0111322536785 0
0.0105968777487 -0.00137006050948 0
-0.00998456792951 -0.00130287704879 0
0.012252482012 -0.0020968987202 0
0.00634232561171 -0.0538470911151 0
-0.0102076866622 -0.0935668230307 0
-0.0213222495978 -0.0272311999326 0
0.0037837592846 -0.075619887718 0
0.00806760186206 -0.00398803744289 0
0.0113666645597 -0.0976680207747 0
-0.00809018931094 -0.00243386031045 0
-0.0102667080945 -0.00159288328312 0
0.0106914877303 -0.00155765567526 0
-0.0172816052204 -0.0831432979327 0
-0.00104145397269 -0.11263695584 0
-0.0155168767313 -0.0229752528151 0
-0.0101872074686 -0.000462620896615 0
0.0123201552056 -0.0019671029243 0
0.0109224826683 -0.000839659374129 0
0.0104945286764 -0.000895904507781 0
-0.00999159320038 -0.000673666451843 0
0.0101556411553 -0.00278868229588 0
0.00713714244944 -0.0061320380578 0
-0.00729945648789 -0.00398789673278 0
0.0187646881609 -0.0149165542162 0
0.0212330925476 -0.0367684345781 0
-0.0193790363474 -0.0247517360375 0
-0.017621529591 -0.0733702530776 0
0.000551359734764 -0.0947099532992 0
-0.0124661516417 -0.00310996142378 0
-0.0106934415509 -0.0976299672606 0
-0.0149724603457 -0.00653896041529 0
0.0201939084489 -0.0648478365963 0
-0.0136022942695 -0.00871314032992 0
-0.020381696682 -0.0499991725027 0
0.0106485711594 -0.000794162421259 0
0.0218416836358 -0.0471755040014 0
-0.0100222889219 -0.000444988679475 0
-0.0218005818341 -0.035803618202 0
-0.0131254576177 -0.0750401249398 0
0.00713121938416 -0.0814543381615 0
0.0128023243155 -0.0223080672312 0
0.0154752939969 -0.0199185454531 0
-0.0108812333002 -0.0154291210892 0
-0.0164948024977 -0.0770797414201 0
-0.00481374381875 -0.121415953696 0
0.0117430083708 -0.111236949701 0
0.0111926312035 -0.121237933269 0
0.0209168311449 -0.0491853478428 0
-0.0195602064665 -0.0350566448033 0
0.00443783252117 -0.103276403848 0
-0.0146907899949 -0.0891861107538 0
0.00965522429064 -0.00106506485641 0
-0.00944778178125 -0.000517876375883 0
-0.00961228498318 -0.00155802336642 0
0.0190506417028 -0.0143736222037 0
0.0157556323904 -0.0797480333117 0
0.00903031329398 -0.121110978793 0
0.0138535669966 -0.00742628038344 0
0.00922948589642 -0.00147121638392 0
-0.00616922119603 -0.0356770914922 0
0.00326890226427 -0.140319790957 0
0.0110809070216 -0.000979069251487 0
-0.0100828081414 -0.000575257364207 0
-0.00716035126748 -0.0644939437989 0
-0.00984082737614 -0.00166009957625 0
0.0105387430303 -0.00167381696587 0
-0.0111303489938 -0.00129396834187 0
-0.0176403491387 -0.0112570677766 0
-0.00909230674275 -0.000727074937143 0
-0.0126062842646 -0.00493543044156 0
0.0105854091388 -0.000986860701144 0
-0.0100027355683 -0.000443409818989 0
0.0140709421871 -0.0122640080666 0
-0.00331261301238 -0.00046778626637 0
0.00381568236774 -0.000577463924994 0
-0.0105325649343 -0.000587957301757 0
-0.00505842232547 -0.0153120030276 0