# vtk DataFile Version 2.0
Generated with Solid Solver
ASCII
DATASET UNSTRUCTURED_GRID
POINTS 1163 float 
0.0 3.5 0.0
2.2 3.5 0.0
2.2 4.0 0.0
0.0 4.0 0.0
0.0687499999999 3.5 0.0
0.1375 3.5 0.0
0.20625 3.5 0.0
0.275 3.5 0.0
0.343749999999 3.5 0.0
0.412499999999 3.5 0.0
0.481249999999 3.5 0.0
0.549999999999 3.5 0.0
0.618749999998 3.5 0.0
0.687499999998 3.5 0.0
0.756249999998 3.5 0.0
0.824999999998 3.5 0.0
0.893749999998 3.5 0.0
0.962499999997 3.5 0.0
1.03125 3.5 0.0
1.1 3.5 0.0
1.16875 3.5 0.0
1.2375 3.5 0.0
1.30625 3.5 0.0
1.375 3.5 0.0
1.44375 3.5 0.0
1.5125 3.5 0.0
1.58125 3.5 0.0
1.65 3.5 0.0
1.71875 3.5 0.0
1.7875 3.5 0.0
1.85625 3.5 0.0
1.925 3.5 0.0
1.99375 3.5 0.0
2.0625 3.5 0.0
2.13125 3.5 0.0
2.2 3.56430812579 0.0
2.2 3.6227083524 0.0
2.2 3.67574343203 0.0
2.2 3.72390623714 0.0
2.2 3.76764438299 0.0
2.2 3.80736436348 0.0
2.2 3.84343531161 0.0
2.2 3.87619247056 0.0
2.2 3.90594026646 0.0
2.2 3.93295517223 0.0
2.2 3.9574882542 0.0
2.2 3.97976750927 0.0
2.18000003888 4.0 0.0
2.15999995974 4.0 0.0
2.13999995594 4.0 0.0
2.12000003893 4.0 0.0
2.0999999813 4.0 0.0
2.07999993507 4.0 0.0
2.06000001965 4.0 0.0
2.04000002354 4.0 0.0
2.01999993997 4.0 0.0
1.99999999426 4.0 0.0
1.98000004623 4.0 0.0
1.95999996625 4.0 0.0
1.93999996787 4.0 0.0
1.92000005069 4.0 0.0
1.90000001292 4.0 0.0
1.87999994967 4.0 0.0
1.86000003245 4.0 0.0
1.84000003166 4.0 0.0
1.81999995194 4.0 0.0
1.80000002065 4.0 0.0
1.78000005962 4.0 0.0
1.75999997703 4.0 0.0
1.73999998149 4.0 0.0
1.72000006236 4.0 0.0
1.70000000651 4.0 0.0
1.67999995967 4.0 0.0
1.66000004242 4.0 0.0
1.64000004304 4.0 0.0
1.61999996152 4.0 0.0
1.6000000096 4.0 0.0
1.58000006667 4.0 0.0
1.55999998704 4.0 0.0
1.53999998381 4.0 0.0
1.52000006764 4.0 0.0
1.5000000299 4.0 0.0
1.47999996242 4.0 0.0
1.46000004337 4.0 0.0
1.4400000454 4.0 0.0
1.41999996386 4.0 0.0
1.40000002834 4.0 0.0
1.38000006734 4.0 0.0
1.35999998576 4.0 0.0
1.33999998537 4.0 0.0
1.32000006658 4.0 0.0
1.30000001585 4.0 0.0
1.27999996279 4.0 0.0
1.26000004759 4.0 0.0
1.24000004493 4.0 0.0
1.2199999616 4.0 0.0
1.20000000906 4.0 0.0
1.18000006792 4.0 0.0
1.15999998616 4.0 0.0
1.13999999119 4.0 0.0
1.12000007157 4.0 0.0
1.1 4.0 0.0
1.07999992843 4.0 0.0
1.06000000881 4.0 0.0
1.04000001384 4.0 0.0
1.01999993209 4.0 0.0
0.999999990948 4.0 0.0
0.98000003841 4.0 0.0
0.959999955072 4.0 0.0
0.939999952416 4.0 0.0
0.920000037214 4.0 0.0
0.899999984154 4.0 0.0
0.879999933427 4.0 0.0
0.860000014636 4.0 0.0
0.840000014246 4.0 0.0
0.819999932662 4.0 0.0
0.79999997166 4.0 0.0
0.780000036145 4.0 0.0
0.759999954604 4.0 0.0
0.73999995663 4.0 0.0
0.72000003758 4.0 0.0
0.699999970103 4.0 0.0
0.679999932361 4.0 0.0
0.660000016189 4.0 0.0
0.640000012962 4.0 0.0
0.61999993333 4.0 0.0
0.599999990406 4.0 0.0
0.58000003848 4.0 0.0
0.559999956964 4.0 0.0
0.539999957581 4.0 0.0
0.520000040329 4.0 0.0
0.499999993489 4.0 0.0
0.479999937647 4.0 0.0
0.460000018512 4.0 0.0
0.440000022972 4.0 0.0
0.419999940378 4.0 0.0
0.399999979352 4.0 0.0
0.380000048063 4.0 0.0
0.359999968347 4.0 0.0
0.339999967553 4.0 0.0
0.320000050328 4.0 0.0
0.299999987077 4.0 0.0
0.279999949312 4.0 0.0
0.260000032129 4.0 0.0
0.240000033752 4.0 0.0
0.219999953776 4.0 0.0
0.200000005737 4.0 0.0
0.180000060031 4.0 0.0
0.159999976465 4.0 0.0
0.139999980354 4.0 0.0
0.120000064926 4.0 0.0
0.100000018697 4.0 0.0
0.0799999610675 4.0 0.0
0.0600000440571 4.0 0.0
0.0400000402596 4.0 0.0
0.0199999611169 4.0 0.0
0.0 3.97976750927 0.0
0.0 3.9574882542 0.0
0.0 3.93295517223 0.0
0.0 3.90594026646 0.0
0.0 3.87619247056 0.0
0.0 3.84343531161 0.0
0.0 3.80736436348 0.0
0.0 3.76764438299 0.0
0.0 3.72390623714 0.0
0.0 3.67574343203 0.0
0.0 3.6227083524 0.0
0.0 3.56430812579 0.0
0.249757963562 3.75212589829 0.0
1.94999996706 3.74954522137 0.0
0.488710285893 3.75947702441 0.0
0.726520490699 3.7655965719 0.0
0.967283134849 3.7597072979 0.0
1.20619032017 3.75831098673 0.0
1.45842774915 3.76733088374 0.0
1.69012076678 3.7622332834 0.0
0.130754044069 3.86878249167 0.0
2.06924595593 3.86878249167 0.0
1.8299999918 3.84622455633 0.0
1.56816462369 3.85034872999 0.0
0.369913859351 3.84868157925 0.0
0.608733620231 3.84706187144 0.0
1.33069778866 3.84790908234 0.0
0.84323446252 3.84762979148 0.0
1.08873170817 3.84705870913 0.0
0.250539365135 3.87785524304 0.0
1.94967747948 3.87849609822 0.0
1.73218750075 3.8916046151 0.0
0.468661874066 3.89189322974 0.0
1.47574192429 3.89639134117 0.0
0.704258110321 3.8963912684 0.0
1.18331258449 3.8976320365 0.0
0.949999953744 3.89208018478 0.0
1.64795374468 3.91749779939 0.0
0.548928463645 3.91905583847 0.0
1.38619509199 3.91928594438 0.0
0.788926872841 3.91906062101 0.0
1.27071160784 3.91777932845 0.0
1.02999997296 3.91685174433 0.0
1.81733541416 3.69950870754 0.0
1.86999999106 3.91823503401 0.0
0.071252620538 3.93011431841 0.0
2.12874737946 3.93011431841 0.0
2.07400690796 3.74293885365 0.0
0.125993092043 3.74293885365 0.0
0.32995676804 3.92118147353 0.0
2.00999996712 3.92542383197 0.0
0.190000032884 3.92542383197 0.0
1.56698738743 3.72218882919 0.0
1.33000000474 3.72531695685 0.0
0.848014510843 3.71986098938 0.0
1.09024665585 3.72285801424 0.0
0.610276609989 3.72290563624 0.0
1.54999998543 3.92414142844 0.0
0.629999973146 3.92414137652 0.0
0.869999974031 3.92414141814 0.0
1.11000003579 3.92414141267 0.0
1.79030638642 3.92649353654 0.0
0.370434802927 3.72513294336 0.0
0.410903135411 3.92892991244 0.0
1.33000002597 3.93737911571 0.0
0.129927648482 3.94112154503 0.0
2.07007235152 3.94112154503 0.0
1.93000000928 3.93875927586 0.0
0.26999999072 3.93875927586 0.0
1.40966706061 3.83880068991 0.0
0.770332962441 3.83880062149 0.0
1.24904900022 3.84293377683 0.0
1.01033287484 3.83880060723 0.0
0.530342681434 3.83880307444 0.0
0.189895273961 3.63486992823 0.0
2.00989835291 3.62845703161 0.0
0.998888153878 3.61665036233 0.0
1.47894673873 3.61675180774 0.0
0.51733910646 3.62937665489 0.0
0.705112628302 3.618743723 0.0
1.66672137035 3.63168728155 0.0
1.18508242495 3.61871739348 0.0
1.71000003443 3.94408608591 0.0
0.489999965568 3.94463856597 0.0
1.44983363802 3.94422347836 0.0
0.729999997105 3.94465012565 0.0
1.21016639734 3.94422345842 0.0
0.928621800545 3.94440037102 0.0
2.00626203014 3.81543543551 0.0
0.193627962274 3.81528928332 0.0
1.66628164144 3.83559795895 0.0
1.75661718781 3.81065958113 0.0
1.61143779865 3.94859227761 0.0
0.991673865748 3.95161238438 0.0
0.0604617941233 3.86281264864 0.0
2.13953820588 3.86281264865 0.0
0.300965570716 3.8114148258 0.0
0.2970894797 3.66361086085 0.0
0.398842167194 3.60449226805 0.0
1.51000004877 3.95218393067 0.0
1.90135619383 3.81213273629 0.0
0.669405272842 3.95495208979 0.0
1.07142780558 3.94866325309 0.0
0.592085094025 3.94901139323 0.0
0.831051660929 3.94633985879 0.0
1.14940528892 3.9549521224 0.0
0.44409344258 3.82719938178 0.0
1.49646539728 3.82376850413 0.0
0.683434082651 3.82631713605 0.0
0.92337834777 3.8234861632 0.0
1.16343437877 3.82631615351 0.0
1.90749084149 3.65350700271 0.0
1.8278758005 3.95083911942 0.0
0.37243073327 3.95235211027 0.0
1.29345662549 3.60569899261 0.0
0.813407949226 3.60572380122 0.0
1.29317153636 3.96216077293 0.0
1.367704599 3.96055764734 0.0
1.97071235041 3.96038324024 0.0
0.22928764959 3.96038324024 0.0
2.10610581798 3.66047411138 0.0
0.0938941820177 3.66047411138 0.0
1.67000000105 3.95862953468 0.0
1.74869816704 3.96079301687 0.0
0.531976761939 3.96138655466 0.0
0.451361042387 3.96112774725 0.0
0.771976832233 3.96138887156 0.0
1.88843481911 3.95881554986 0.0
1.61277513709 3.78538823015 0.0
2.13311214501 3.79435403671 0.0
0.0668878549946 3.79435403671 0.0
1.76678797151 3.60286552601 0.0
0.311702446283 3.9611157379 0.0
1.02877762737 3.96159282031 0.0
1.40830122607 3.96143175203 0.0
1.25214210333 3.957355862 0.0
1.59476493393 3.9048774062 0.0
1.56950979124 3.96148017208 0.0
0.890017020275 3.96125792969 0.0
2.03089110475 3.96040268709 0.0
0.169108895255 3.96040268709 0.0
0.939722125942 3.68539157065 0.0
1.41686981874 3.69192854313 0.0
0.0426348006718 3.96101756902 0.0
2.15736519933 3.96101756902 0.0
1.36077308019 3.79177204211 0.0
0.817982383499 3.78962669257 0.0
1.05834720932 3.78780184893 0.0
0.578349529346 3.78781530011 0.0
1.77992711518 3.87652731382 0.0
0.417982153133 3.87594990465 0.0
1.84363633012 3.77741329286 0.0
1.52244994479 3.87704541475 0.0
0.657426528912 3.87734838249 0.0
1.13742651778 3.87734834025 0.0
0.898116026439 3.8800466833 0.0
1.56984259435 3.64465823131 0.0
1.08983016076 3.6446495206 0.0
0.609942357805 3.64483976081 0.0
1.29451769374 3.79627773068 0.0
0.0893439668432 3.96574839433 0.0
2.11065603316 3.96574839433 0.0
2.01422398896 3.86980625824 0.0
0.185776011038 3.86980625824 0.0
0.305957237756 3.87340573745 0.0
1.72977480551 3.68665973332 0.0
1.25418096296 3.69351129461 0.0
0.629999973146 3.96272981435 0.0
1.11000003579 3.96272983221 0.0
0.772975283819 3.69297597031 0.0
1.89089074715 3.86951346173 0.0
0.445448577516 3.69456159386 0.0
1.82621986864 3.89678318705 0.0
2.07135424223 3.81165410377 0.0
0.128645757768 3.81165410377 0.0
0.373320289473 3.89968791662 0.0
1.79000004014 3.96541718891 0.0
0.383302070088 3.78976392323 0.0
0.409457623385 3.96502881851 0.0
1.55531527123 3.78787141386 0.0
1.34861332978 3.89383287415 0.0
0.593245985735 3.89483466551 0.0
0.833245353375 3.89479604398 0.0
1.0732444554 3.8948349405 0.0
0.911896623122 3.59194725763 0.0
0.187580554011 3.70699710313 0.0
2.01241944599 3.70699710313 0.0
1.39201907571 3.59233063354 0.0
2.09635520798 3.90516200201 0.0
0.103644792024 3.90516200201 0.0
1.89086147526 3.72621461413 0.0
1.02102684616 3.70044819701 0.0
1.49813234221 3.70194667869 0.0
0.53965669049 3.70593418829 0.0
1.63719578665 3.69772473547 0.0
0.685447658936 3.70127585046 0.0
1.16541741817 3.70128744764 0.0
0.901649266036 3.76287226775 0.0
0.992351690321 3.90662993531 0.0
1.69131894868 3.90657323657 0.0
1.9699561555 3.91599371502 0.0
0.230043844497 3.91599371502 0.0
1.61980840676 3.85005402918 0.0
2.04685187594 3.90639759008 0.0
0.153148124058 3.90639759008 0.0
0.512139828486 3.90538520837 0.0
1.43057458921 3.90702644399 0.0
0.749149996349 3.90689574876 0.0
[...]
POINT_DATA 1163
VECTORS Displacement float
0.0 0.0 0
0.0 0.0 0
0.00854149998972 -0.00195358753039 0
-0.0116738725988 -0.00157990602226 0
0.0 0.0 0
0.0 0.0 0
0.0 0.0 0
0.0 0.0 0
0.0 0.0 0
0.0 0.0 0
0.0 0.0 0
0.0 0.0 0
0.0 0.0 0
0.0 0.0 0
0.0 0.0 0
0.0 0.0 0
0.0 0.0 0
0.0 0.0 0
0.0 0.0 0
0.0 0.0 0
0.0 0.0 0
0.0 0.0 0
0.0 0.0 0
0.0 0.0 0
0.0 0.0 0
0.0 0.0 0
0.0 0.0 0
0.0 0.0 0
0.0 0.0 0
0.0 0.0 0
0.0 0.0 0
0.0 0.0 0
0.0 0.0 0
0.0 0.0 0
0.0 0.0 0
0.00175251997903 -0.00147235310239 0
0.00319275834314 -0.00204210989285 0
0.00441310264601 -0.00225194470085 0
0.00533978624615 -0.00227946323895 0
0.00604693793722 -0.0022267220898 0
0.0065942096213 -0.00214642273283 0
0.00701194634285 -0.00207703351806 0
0.00736088059069 -0.00202111889077 0
0.00764942606789 -0.00198285574642 0
0.00790294718654 -0.00196414561146 0
0.00813281437959 -0.00195571748534 0
0.00834524407778 -0.00195341666307 0
0.00854168075015 -0.00175875826307 0
0.00854062078636 -0.00156027020404 0
0.0085357071408 -0.00135896935298 0
0.00852511284388 -0.00115614431995 0
0.00850817185089 -0.000954512244429 0
0.00848473387503 -0.000757392524014 0
0.00845314213904 -0.000564793394768 0
0.00841564145066 -0.000382400092887 0
0.008369498537 -0.000208577932052 0
0.00831856610515 -4.82681363424e-05 0
0.00825683704293 9.9759584391e-05 0
0.00818788793246 0.000229695515709 0
0.00811327523191 0.000340557238279 0
0.00802687117585 0.000433357205352 0
0.00793453521182 0.00050201810507 0
0.00782641660043 0.000548236276199 0
0.00770923930697 0.000564215417819 0
0.00757637070658 0.000553184259476 0
0.00743099830587 0.000503231598277 0
0.00726057437759 0.000414701527852 0
0.00707560965094 0.000280189183646 0
0.0068800973051 9.2226912294e-05 0
0.00665184013531 -0.000140677602644 0
0.00640403238484 -0.000446966673519 0
0.00611780487949 -0.000819669464933 0
0.0058189574276 -0.00127856356099 0
0.00547174693806 -0.00182260587633 0
0.00509813247695 -0.00248082152551 0
0.00468596142284 -0.00325124113377 0
0.00426614870535 -0.00415254192921 0
0.00380664671825 -0.00521990416465 0
0.003276313727 -0.00643003332014 0
0.00274035062559 -0.0078364686715 0
0.0021566208086 -0.00945973995532 0
0.0015562486277 -0.0113276667321 0
0.000915801255855 -0.0134560981307 0
0.000242683635411 -0.0159044160515 0
-0.000469762579753 -0.0187364658495 0
-0.00112091698121 -0.0219755694771 0
-0.00183007655586 -0.0257534179388 0
-0.00244785076754 -0.0300080174536 0
-0.00308392414835 -0.0349224993326 0
-0.00369867437772 -0.0401483536465 0
-0.00205461198851 -0.050628114338 0
-0.000118133206356 -0.0601970018666 0
0.00179017370881 -0.0692175757246 0
0.00347762641643 -0.0778734208439 0
0.00507658741896 -0.085946725836 0
0.00634165346618 -0.0936295213184 0
0.00743415180532 -0.10084302173 0
0.00824140451448 -0.107622560545 0
0.00878780969527 -0.113984334236 0
0.00906613653439 -0.119915752254 0
0.00911681677922 -0.125364197059 0
0.00889199086218 -0.130354856561 0
0.00845947832772 -0.134853013376 0
0.00784744417711 -0.138855515373 0
0.00700526902095 -0.142358402646 0
0.00599923036755 -0.145334853495 0
0.00486762750386 -0.14778330498 0
0.0036023115714 -0.14969423569 0
0.00222905615093 -0.151057032786 0
0.000732367529695 -0.151844598467 0
-0.000859162702136 -0.152095853932 0
-0.00253069405144 -0.151838184509 0
-0.00408141227825 -0.150980719425 0
-0.00552486589509 -0.149567062879 0
-0.00680934718936 -0.147607612925 0
-0.00797285521966 -0.145110961546 0
-0.00898592255098 -0.142084220017 0
-0.00983399632519 -0.138534771538 0
-0.0105148338612 -0.134471017518 0
-0.0109821015989 -0.129912560504 0
-0.0112136670146 -0.124859816941 0
-0.0112464717298 -0.119333156182 0
-0.0110167591003 -0.113386894995 0
-0.0105199458284 -0.10697199447 0
-0.00976312299941 -0.100104225949 0
-0.00880535578127 -0.0927873465516 0
-0.00749589021769 -0.0850432146587 0
-0.00612059971576 -0.0768304167704 0
-0.00440662273249 -0.0680332250939 0
-0.00267435811926 -0.0588472232319 0
-0.00107184160602 -0.0489110150163 0
-0.000753163006518 -0.0416357786493 0
-0.001125313972 -0.035591862199 0
-0.00162329292058 -0.030662057988 0
-0.00230969764881 -0.0264054406991 0
-0.00297288512975 -0.0227788329036 0
-0.00373307630227 -0.0196208824661 0
-0.00455211605452 -0.0169194358797 0
-0.00529707640252 -0.0145790306781 0
-0.00602749400612 -0.0125777727304 0
-0.00674174767345 -0.0108403902974 0
-0.00742378759456 -0.009363859973 0
-0.00803539677785 -0.00809572901013 0
-0.00863634911907 -0.00703051144776 0
-0.00916442333503 -0.00613011669735 0
-0.00966294212508 -0.00538047465714 0
-0.0101112888553 -0.00477365264755 0
-0.0104830627445 -0.00426001540074 0
-0.0108178551888 -0.00384553934799 0
-0.0110865142969 -0.00348916280532 0
-0.0113074010531 -0.00320027430275 0
-0.011467085369 -0.00293349560881 0
-0.0115776746259 -0.0026892246113 0
-0.011643271846 -0.00244302426082 0
-0.0116716007222 -0.00217936304725 0
-0.011675615279 -0.00189200927927 0
-0.0119940849337 -0.00157820324163 0
-0.0123723309409 -0.00158940568355 0
-0.0128225278603 -0.00163942211085 0
-0.0133335324799 -0.00175528134158 0
-0.0138603884736 -0.00200557645379 0
-0.0142853549446 -0.00239300679342 0
-0.0145838780736 -0.00291940631837 0
-0.0144613285376 -0.00359940454442 0
-0.0137579488613 -0.00429666193119 0
-0.0122102888979 -0.00489105043096 0
-0.00937290644037 -0.00496291732756 0
-0.00540335301593 -0.00391867207737 0
-0.0167811266179 -0.0056163143247 0
0.00650223178832 4.0038034976e-05 0
-0.02257559921 -0.0263254590536 0
-0.0161822156734 -0.0610843552093 0
0.00322940663616 -0.0697028481696 0
0.0189623728825 -0.0479577517883 0
0.0176614414719 -0.0138383475173 0
0.0105783559275 -0.00142433055382 0
-0.0142886895279 -0.00319983275198 0
0.00734908087817 -0.000639917415507 0
0.0082151625824 0.000450874770059 0
0.0121051240099 -0.00575536410591 0
-0.0184129382068 -0.0148017905068 0
-0.0220314334755 -0.0602236623731 0
0.0197458126741 -0.0379461782625 0
-0.00770248210561 -0.0959057366947 0
0.0128067836885 -0.0868476911979 0
-0.01479565442 -0.00617458996948 0
0.00763833354789 0.000301257408817 0
0.00855543147499 -0.000162509246033 0
-0.0187911955052 -0.0313500449882 0
0.0117967807618 -0.0136853180848 0
-0.0168354774974 -0.0923894107604 0
0.0163945905037 -0.0827160322557 0
0.00155746612264 -0.112950771902 0
0.00830503330759 -0.00201750321493 0
-0.0184939387756 -0.0550743961725 0
0.0123188399301 -0.0284508454139 0
-0.0112520744369 -0.113604418837 0
0.0160841618858 -0.0621450237305 0
0.00771875837968 -0.115749679352 0
0.00729062316137 -0.000243297291692 0
0.00786192877606 0.000617198136881 0
-0.0128912618781 -0.00256743035359 0
0.00787959121122 -0.0012411792754 0
0.00577244446087 -0.000705622653824 0
-0.0147484056788 -0.00308857975823 0
-0.0130917433883 -0.0112507767504 0
0.00782585816676 -9.4441229125e-05 0
-0.0127530109168 -0.0042301582076 0
0.013739157898 -0.0053951311535 0
0.0199368685373 -0.0258420998865 0
-0.00648342115147 -0.0569969438013 0
0.0121674579425 -0.0523918924147 0
-0.0203760504618 -0.0376581560342 0
0.00847127955526 -0.00683095684252 0
-0.0178230464966 -0.0809540567999 0
-0.00512982505951 -0.123089330988 0
0.0123048788675 -0.105765712597 0
0.00787418567654 0.000452016781967 0
-0.0193206191749 -0.0117885296695 0
-0.0133616980605 -0.0209473945792 0
0.0123478179648 -0.0442506965746 0
-0.0124871787407 -0.00320120407663 0
0.00795887573239 -0.000642170583438 0
0.00786871811827 0.000437689283334 0
-0.0118818872099 -0.00717976928422 0
0.017746815493 -0.0222074748485 0
-0.0135470243631 -0.086453150157 0
0.0201412100559 -0.0560130972546 0
0.006901731503 -0.0922711557869 0
-0.0229102058647 -0.0413812623954 0
-0.0112075646421 -0.00274021245542 0
0.00360905886982 -0.000287207147784 0
0.00379956443708 -0.0283283242286 0
0.0117569623405 -0.00648223951462 0
-0.0157491011139 -0.015403729444 0
-0.0112638882145 -0.0243209545386 0
0.00828815735601 -0.00179792818296 0
0.0119768447113 -0.0220315912819 0
0.00749833209537 -0.000473616691949 0
-0.0134627572985 -0.0381354340385 0
0.00745332984242 -0.0170874519731 0
-0.013703716858 -0.111218316472 0
0.0134871331873 -0.08584825722 0
-0.000290193380016 -0.131620384805 0
0.00696716065399 -0.000135842231362 0
-0.0156901422644 -0.00421277251873 0
0.0104622519223 -0.00170756285959 0
0.00919139526765 -0.000169163179091 0
0.0069874966024 -0.00340753131218 0
0.00458140481352 -0.131343681682 0
-0.0142125093684 -0.00266425951979 0
0.00724532077266 -0.00137693814803 0
-0.017763907018 -0.00864731470911 0
-0.0149962068568 -0.00585220068191 0
-0.0127172259525 -0.00728058853966 0
0.00636900960697 -0.0101123116385 0
0.00754484757558 0.000342972393477 0
-0.0147687905035 -0.0991570968213 0
0.00964262071252 -0.120250036231 0
-0.0155220206961 -0.0737633716476 0
-0.0079241782005 -0.127730595781 0
0.0121033200925 -0.105431361448 0
-0.0214901471116 -0.0241857552248 0
0.0152312462027 -0.0111583827651 0
-0.0192878084708 -0.0704587048486 0
-0.00066225658088 -0.0905287685999 0
0.0174696440997 -0.0697247777087 0
0.00505842280751 -0.000161433240728 0
0.00771218347615 0.000605126550102 0
-0.0103743528081 -0.0156695450279 0
0.012765943441 -0.0142440645296 0
-0.00585037562287 -0.0247906863901 0
0.009570045131 -0.0597535013625 0
0.00646739099277 -0.0330861502608 0
0.00799959628279 0.000194895163523 0
-0.0111002394611 -0.00547098494838 0
0.00406345066977 -0.000858555726399 0
-0.0116869549238 -0.00263366733744 0
0.00690555608765 -0.00137606010732 0
0.00732142269562 7.80164934864e-05 0
-0.0122154827985 -0.0529539027127 0
-0.00951365900899 -0.0285244580605 0
-0.0112658259482 -0.124547807439 0
0.00783321535791 0.000585598526728 0
0.0125055210677 -0.00365042832382 0
0.0064593123187 -0.00132317697512 0
-0.0148719246663 -0.00297917851852 0
0.0052700870442 -0.000734762280284 0
-0.0100210071475 -0.00988510663174 0
0.00699370261899 -0.130854196305 0
0.00547613882623 -0.0239165833519 0
0.0116440376661 -0.0745508521538 0
0.00922006816093 -0.00417330624327 0
0.00599128932792 -0.0056007530164 0
-0.00335903585642 -0.137170960518 0
0.00808161483852 -0.000279123820766 0
-0.01171867032 -0.00385556975074 0
0.000750183921698 -0.0480882109884 0
0.0174336022083 -0.0141774092017 0
-0.012300672331 -0.00221573491131 0
0.00816498600862 -0.00153357949115 0
0.0204109362559 -0.0276982905364 0
-0.00975826903374 -0.0761497546472 0
0.0107494024894 -0.0729631302262 0
-0.0229280835584 -0.0440035370079 0
0.00844298869652 0.000298231246792 0
-0.0183355900467 -0.0215270685118 0
0.00791609345956 0.000200647827682 0
0.0119084516852 -0.0090491186624 0
-0.0195909530656 -0.0775094566557 0
0.0151965850773 -0.0874133865613 0
-0.0029400172996 -0.109030638132 0
0.0112516545031 -0.00416652658037 0
0.00949652255089 -0.0325975816385 0
-0.0159234851154 -0.0239085328344 0
0.0210833350586 -0.039742087811 0
-0.0120996908362 -0.00275428738609 0
0.00819298205819 -0.00105423668026 0
0.00743632652597 -0.000147047102875 0
-0.0145304074261 -0.00408811573324 0
-0.0157637201497 -0.00927216230738 0
0.00869333339478 -0.00102579433909 0
0.018138802387 -0.0302962516232 0
-0.0141273216149 -0.0890333285656 0
0.0107354739479 -0.116966812766 0
-0.0113617925607 -0.0459450140429 0
0.00782147591369 0.00051954413877 0
-0.0198246745102 -0.0162460139096 0
0.00803577140342 0.000571177082899 0
0.0067486182952 -0.000673632541987 0
-0.0151135978081 -0.00319463894191 0
-0.0153899629407 -0.015648609735 0
0.0074705982743 0.000430583815181 0
-0.0203540898635 -0.0150815906391 0
-0.00867496033922 -0.0207884348081 0
0.014164344901 -0.00651299669163 0
0.0164518470738 -0.0368862942724 0
-0.0204298886451 -0.0649463548386 0
-0.00829768360365 -0.110587011127 0
0.0110277404837 -0.103212840301 0
-0.000731015769893 -0.0224567347196 0
-0.0145941097027 -0.00354371881236 0
0.00536501187334 -0.000288592149504 0
0.0110950678548 -0.00826702130892 0
0.00765977010991 -0.000904976543867 0
-0.0134329161247 -0.00289433169699 0
0.00673506947638 3.9794359062e-05 0
0.00694364882055 -0.0503772331391 0
0.0155119043886 -0.00878914004302 0
-0.0207863158504 -0.0268951405269 0
0.0112366334931 -0.00275753273068 0
-0.0166223932954 -0.0413074345793 0
0.0156455820298 -0.0406377901778 0
-0.00244723471074 -0.0711474112967 0
0.00495739601195 -0.115785773487 0
0.0084646504913 -0.000875945779012 0
0.00778323834372 0.000202791096484 0
-0.013084894127 -0.00540088040321 0
0.0109719486019 -0.00322564331095 0
0.00768235569157 -0.00042036914346 0
-0.01339531623 -0.00350188463157 0
-0.0189833049249 -0.0428131026889 0
0.0121356638464 -0.0199387304272 0
-0.0140407155104 -0.103740656536 0
0.016525055978 -0.0736998603234 0
0.00539243787996 -0.00133251477181 0
-0.0140437704818 -0.00318791287302 0
0.0019762873305 -0.138867680723 0
-0.0134983916513 -0.00234373293688 0
0.00760689738608 -0.00157017044936 0
0.00471824185672 -0.0134930476018 0
-0.013447508695 -0.110937877918 0
0.0114370835947 -0.0992690588051 0
-0.0162994737191 -0.00591771434213 0
-0.0183402085766 -0.00871087710332 0
0.0192113972902 -0.0511657337658 0
0.00731485209502 0.000198775995627 0
0.00735734490388 -0.0452822318348 0
0.00889253348096 -0.000383246184157 0
0.014824974706 -0.0643472067916 0
-0.0210537348836 -0.0521813043667 0
0.00860313458043 -0.0129236995477 0
-0.0156472930755 -0.100104454717 0
0.0142666695968 -0.0918723328377 0
0.00635043352172 -0.0024006043963 0
-0.00518205948278 -0.0814267744163 0
0.00351849935499 -0.000310686583176 0
0.00793931396839 0.000426719973712 0
-0.0103496252313 -0.00728201315142 0
-0.0121137782407 -0.0644117658598 0
-0.00971519550045 -0.130601133999 0
0.00546238058533 -0.00750186357186 0
-0.00552525612305 -0.137029110696 0
0.00775015909475 0.00061471537986 0
0.00816276996257 -0.00064475026276 0
-0.0118831376931 -0.0032453102592 0
-0.00902479211717 -0.0120619261313 0
0.00949165478284 -0.00053076617224 0
0.00808791057249 -9.41910848576e-06 0
-0.0111286873422 -0.0046477546892 0
-0.0219209851787 -0.0319211809169 0
0.0156898655025 -0.0155836737874 0
-0.0168443819896 -0.0817683305095 0
0.0188111389113 -0.0665645272336 0
0.00278827822608 -0.0970126888266 0
0.0028632515822 -0.000244498458779 0
-0.00810827081252 -0.00262145381015 0
0.00804386533445 0.000110384677978 0
0.00255500135626 -0.125544167017 0
-0.0156431371079 -0.0278168935715 0
0.01650463587 -0.0496617147865 0
-0.0112700805499 -0.0994468540179 0
0.00884413308918 -0.100152285599 0
-0.021858750792 -0.0517512127976 0
-0.00648653253725 -0.00153538844466 0
0.00203744410621 -0.000360140648927 0
-0.00913787382436 -0.00397818793896 0
0.0078235993572 0.000535698820807 0
-0.0139112783316 -0.00869961797595 0
0.016077976076 -0.00975891651778 0
0.0169364169483 -0.0281340291534 0
-0.00201239644078 -0.120254189115 0
-0.0213133419537 -0.0183376831273 0
0.00922166498125 -0.00935771021762 0
-0.017479855988 -0.0887144191654 0
0.0140594373058 -0.0964973763601 0
0.00700737391312 -0.000962740001111 0
-0.0147026782187 -0.00297129204484 0
0.00692050991914 -0.000522660132463 0
0.0077806361897 -0.00516533843567 0
0.00633423076185 -0.000345492833346 0
-0.0155380675141 -0.00363716316849 0
-0.00894843673262 -0.038572146179 0
0.00464198987935 -0.0165186364873 0
-0.0129236888845 -0.116690010033 0
4.24860628319e-05 -0.140257654259 0
0.0112975368717 -0.0917227508143 0
0.0201414537606 -0.0369870945018 0
0.00959066079635 -0.0016287790678 0
0.00677620845453 -0.00163184111157 0
-0.0146508080588 -0.00282543087107 0
0.0191411933701 -0.0190926947111 0
0.00513240688368 -0.00159372072502 0
0.00855883989646 0.000164526336167 0
0.00622410546377 -0.0123197479513 0
0.0168942773791 -0.0180056488918 0
-0.00776319927047 -0.0109991363129 0
-0.00496712626436 -0.0406226743252 0
-0.0148130376555 -0.00475903496082 0
-0.011804374801 -0.0603136764062 0
-0.0188418590384 -0.0117647251996 0
0.0106123216657 -0.00578178837004 0
-0.0100983318212 -0.00720626239113 0
-0.00694262013869 -0.00237213318081 0
0.0022410444931 -0.000911905880455 0
0.00823510599752 -0.00130975962277 0
-0.0121167619669 -0.00247902421072 0
0.00795990900982 0.000573897711075 0
0.00924311935775 -0.0121562495919 0
-0.00642777921034 -0.0163522313836 0
-0.0129100499332 -0.00212551442218 0
0.00787487737401 -0.00165986081214 0
-0.0102864754648 -0.0102581744425 0
0.00535435528519 -0.000113376325169 0
-0.0166890188819 -0.00899004349494 0
0.00437905223382 -0.0177634652642 0
0.00793289692496 -0.00359994756787 0
-0.0232827512272 -0.0347932759072 0
-0.0159210472306 -0.0114864870316 0
0.0186008140314 -0.0179924500591 0
0.00661405434519 -0.0759926682308 0
0.00561922854558 -0.00360896577983 0
0.00434948208133 -0.140072224662 0
0.0133259820919 -0.0359354981178 0
0.0071434134649 -0.000372050018994 0
-0.014990787692 -0.0035923325299 0
0.00445066721744 -0.000872273025786 0
0.0206766685998 -0.0465925279315 0
0.00784144523784 -0.133205973934 0
-0.0141132183674 -0.0693182459404 0
-0.0107742493048 -0.0902093360644 0
0.00962626479397 -0.0912698475212 0
-0.0228019554097 -0.0499093391049 0
0.0191723259725 -0.0288652319956 0
0.00238241200213 -0.0273970345836 0
0.00764914493029 -0.0711063739207 0
0.00561668161979 -0.000287925413033 0
0.00791624810238 -0.000937479105187 0
-0.0127292504285 -0.00285051967031 0
-0.0125294266116 -0.0828756656879 0
-0.013246016903 -0.0988726314757 0
0.00970050518345 -0.124086136256 0
0.0107776990996 -0.114144786687 0
-0.0136736447182 -0.00289374910838 0
0.00498757719605 -0.000620738920259 0
0.0102755985779 -0.00108490918517 0
0.00764871427997 -0.00123239944137 0
-0.0134362843159 -0.00262111287036 0
0.00784651471248 0.000450498793648 0
0.00364038219349 -0.0102336799746 0
-0.00756980199458 -0.140369526968 0
-0.019108973896 -0.0590177116392 0
0.0174025772898 -0.0585728616008 0
0.00752384107457 0.000539005081529 0
0.0193056160805 -0.0588718102389 0
-0.00780918138811 -0.0175460869346 0
-0.0121117350002 -0.0019969220091 0
0.00827483508166 -0.00169097045119 0
-0.00566013233796 -0.111697241415 0
0.0131518552959 -0.0966684969625 0
-0.020088338164 -0.0728890505671 0
-0.0151850148639 -0.00509069949568 0
0.00732450577793 0.000220195449027 0
0.0074831844711 9.11634511241e-05 0
0.00789031586038 -0.000400680617984 0
-0.0126031506235 -0.00355239712162 0
0.00784927714852 0.000630464988791 0
0.00722549189819 0.000260944997575 0
-0.00667952055272 -0.024232171455 0
0.0112875011953 -0.00214559609044 0
0.0135071637642 -0.00818690210321 0
-0.0210083866761 -0.0657023241863 0
-0.00375275925435 -0.0932807858717 0
0.0152456115709 -0.0786393458411 0
-0.0199920716763 -0.0191832942993 0
0.00505179903977 -0.102974404857 0
-0.0227640253544 -0.0286949830289 0
0.0153945553642 -0.0196666788312 0
-0.0215544875633 -0.0395224868488 0
-0.0147530271532 -0.0930299099364 0
0.00766925921143 2.65992418245e-05 0
0.0171161636683 -0.0146390105678 0
-0.0137287198045 -0.00456021206097 0
-0.0170932811744 -0.0699702743212 0
0.00263282327038 -0.0831604116451 0
0.0192142378074 -0.0578541643817 0
0.00834836418917 -0.00306020534258 0
0.00953339692807 -0.00260360465999 0
-0.0182046078004 -0.0643272170054 0
-0.00935604397925 -0.118576316223 0
0.00961190196717 -0.113367168878 0
0.00316147904828 -0.0379856090509 0
0.00536358558629 -0.0539501047183 0
0.0136918075125 -0.0120855012753 0
-0.0184536192347 -0.0812179193434 0
0.0170862638633 -0.0780482704228 0
6.51569782059e-05 -0.104222847652 0
0.00804380001587 0.000317323525745 0
-0.00989048060032 -0.00643827681416 0
-0.0125816930516 -0.0137137849 0
0.0116287224366 -0.00252021441863 0
0.00911879612629 -0.0213192468794 0
0.0143204437171 -0.0759298833532 0
0.00887102758269 -4.01422386655e-05 0
0.00792307604721 0.000497620228725 0
-0.0133980714165 -0.106029049083 0
0.0110836888846 -0.106857948768 0
0.00686785526108 2.9579681915e-05 0
-0.0164088168266 -0.00502589488301 0
0.00843814107805 -0.0632518142063 0
-0.0139964448619 -0.00243127271416 0
0.00734253220808 -0.00164564026636 0
-0.0173214633214 -0.0115667970667 0
-0.0224053603104 -0.0348548825434 0
-0.00911835571723 -0.00846833025362 0
-0.0202147561514 -0.0268973971122 0
0.00777458952505 0.000360547455339 0
-0.0134653189169 -0.00643757309104 0
0.00905101324847 -0.000916908314311 0
-0.00624678182878 -0.00158368750035 0
0.00195671760021 -0.000207022417615 0
-0.0160544043685 -0.0072055196234 0
0.00164243719673 -0.0164950254924 0
0.00820795384622 -0.00462193703907 0