# vtk DataFile Version 2.0
Generated with Solid Solver
ASCII
DATASET UNSTRUCTURED_GRID
POINTS 1163 float 
0.0 3.5 0.0
2.2 3.5 0.0
2.2 4.0 0.0
0.0 4.0 0.0
0.0687499999999 3.5 0.0
0.1375 3.5 0.0
0.20625 3.5 0.0
0.275 3.5 0.0
0.343749999999 3.5 0.0
0.412499999999 3.5 0.0
0.481249999999 3.5 0.0
0.549999999999 3.5 0.0
0.618749999998 3.5 0.0
0.687499999998 3.5 0.0
0.756249999998 3.5 0.0
0.824999999998 3.5 0.0
0.893749999998 3.5 0.0
0.962499999997 3.5 0.0
1.03125 3.5 0.0
1.1 3.5 0.0
1.16875 3.5 0.0
1.2375 3.5 0.0
1.30625 3.5 0.0
1.375 3.5 0.0
1.44375 3.5 0.0
1.5125 3.5 0.0
1.58125 3.5 0.0
1.65 3.5 0.0
1.71875 3.5 0.0
1.7875 3.5 0.0
1.85625 3.5 0.0
1.925 3.5 0.0
1.99375 3.5 0.0
2.0625 3.5 0.0
2.13125 3.5 0.0
2.2 3.56430812579 0.0
2.2 3.6227083524 0.0
2.2 3.67574343203 0.0
2.2 3.72390623714 0.0
2.2 3.76764438299 0.0
2.2 3.80736436348 0.0
2.2 3.84343531161 0.0
2.2 3.87619247056 0.0
2.2 3.90594026646 0.0
2.2 3.93295517223 0.0
2.2 3.9574882542 0.0
2.2 3.97976750927 0.0
2.18000003888 4.0 0.0
2.15999995974 4.0 0.0
2.13999995594 4.0 0.0
2.12000003893 4.0 0.0
2.0999999813 4.0 0.0
2.07999993507 4.0 0.0
2.06000001965 4.0 0.0
2.04000002354 4.0 0.0
2.01999993997 4.0 0.0
1.99999999426 4.0 0.0
1.98000004623 4.0 0.0
1.95999996625 4.0 0.0
1.93999996787 4.0 0.0
1.92000005069 4.0 0.0
1.90000001292 4.0 0.0
1.87999994967 4.0 0.0
1.86000003245 4.0 0.0
1.84000003166 4.0 0.0
1.81999995194 4.0 0.0
1.80000002065 4.0 0.0
1.78000005962 4.0 0.0
1.75999997703 4.0 0.0
1.73999998149 4.0 0.0
1.72000006236 4.0 0.0
1.70000000651 4.0 0.0
1.67999995967 4.0 0.0
1.66000004242 4.0 0.0
1.64000004304 4.0 0.0
1.61999996152 4.0 0.0
1.6000000096 4.0 0.0
1.58000006667 4.0 0.0
1.55999998704 4.0 0.0
1.53999998381 4.0 0.0
1.52000006764 4.0 0.0
1.5000000299 4.0 0.0
1.47999996242 4.0 0.0
1.46000004337 4.0 0.0
1.4400000454 4.0 0.0
1.41999996386 4.0 0.0
1.40000002834 4.0 0.0
1.38000006734 4.0 0.0
1.35999998576 4.0 0.0
1.33999998537 4.0 0.0
1.32000006658 4.0 0.0
1.30000001585 4.0 0.0
1.27999996279 4.0 0.0
1.26000004759 4.0 0.0
1.24000004493 4.0 0.0
1.2199999616 4.0 0.0
1.20000000906 4.0 0.0
1.18000006792 4.0 0.0
1.15999998616 4.0 0.0
1.13999999119 4.0 0.0
1.12000007157 4.0 0.0
1.1 4.0 0.0
1.07999992843 4.0 0.0
1.06000000881 4.0 0.0
1.04000001384 4.0 0.0
1.01999993209 4.0 0.0
0.999999990948 4.0 0.0
0.98000003841 4.0 0.0
0.959999955072 4.0 0.0
0.939999952416 4.0 0.0
0.920000037214 4.0 0.0
0.899999984154 4.0 0.0
0.879999933427 4.0 0.0
0.860000014636 4.0 0.0
0.840000014246 4.0 0.0
0.819999932662 4.0 0.0
0.79999997166 4.0 0.0
0.780000036145 4.0 0.0
0.759999954604 4.0 0.0
0.73999995663 4.0 0.0
0.72000003758 4.0 0.0
0.699999970103 4.0 0.0
0.679999932361 4.0 0.0
0.660000016189 4.0 0.0
0.640000012962 4.0 0.0
0.61999993333 4.0 0.0
0.599999990406 4.0 0.0
0.58000003848 4.0 0.0
0.559999956964 4.0 0.0
0.539999957581 4.0 0.0
0.520000040329 4.0 0.0
0.499999993489 4.0 0.0
0.479999937647 4.0 0.0
0.460000018512 4.0 0.0
0.440000022972 4.0 0.0
0.419999940378 4.0 0.0
0.399999979352 4.0 0.0
0.380000048063 4.0 0.0
0.359999968347 4.0 0.0
0.339999967553 4.0 0.0
0.320000050328 4.0 0.0
0.299999987077 4.0 0.0
0.279999949312 4.0 0.0
0.260000032129 4.0 0.0
0.240000033752 4.0 0.0
0.219999953776 4.0 0.0
0.200000005737 4.0 0.0
0.180000060031 4.0 0.0
0.159999976465 4.0 0.0
0.139999980354 4.0 0.0
0.120000064926 4.0 0.0
0.100000018697 4.0 0.0
0.0799999610675 4.0 0.0
0.0600000440571 4.0 0.0
0.0400000402596 4.0 0.0
0.0199999611169 4.0 0.0
0.0 3.97976750927 0.0
0.0 3.9574882542 0.0
0.0 3.93295517223 0.0
0.0 3.90594026646 0.0
0.0 3.87619247056 0.0
0.0 3.84343531161 0.0
0.0 3.80736436348 0.0
0.0 3.76764438299 0.0
0.0 3.72390623714 0.0
0.0 3.67574343203 0.0
0.0 3.6227083524 0.0
0.0 3.56430812579 0.0
0.249757963562 3.75212589829 0.0
1.94999996706 3.74954522137 0.0
0.488710285893 3.75947702441 0.0
0.726520490699 3.7655965719 0.0
0.967283134849 3.7597072979 0.0
1.20619032017 3.75831098673 0.0
1.45842774915 3.76733088374 0.0
1.69012076678 3.7622332834 0.0
0.130754044069 3.86878249167 0.0
2.06924595593 3.86878249167 0.0
1.8299999918 3.84622455633 0.0
1.56816462369 3.85034872999 0.0
0.369913859351 3.84868157925 0.0
0.608733620231 3.84706187144 0.0
1.33069778866 3.84790908234 0.0
0.84323446252 3.84762979148 0.0
1.08873170817 3.84705870913 0.0
0.250539365135 3.87785524304 0.0
1.94967747948 3.87849609822 0.0
1.73218750075 3.8916046151 0.0
0.468661874066 3.89189322974 0.0
1.47574192429 3.89639134117 0.0
0.704258110321 3.8963912684 0.0
1.18331258449 3.8976320365 0.0
0.949999953744 3.89208018478 0.0
1.64795374468 3.91749779939 0.0
0.548928463645 3.91905583847 0.0
1.38619509199 3.91928594438 0.0
0.788926872841 3.91906062101 0.0
1.27071160784 3.91777932845 0.0
1.02999997296 3.91685174433 0.0
1.81733541416 3.69950870754 0.0
1.86999999106 3.91823503401 0.0
0.071252620538 3.93011431841 0.0
2.12874737946 3.93011431841 0.0
2.07400690796 3.74293885365 0.0
0.125993092043 3.74293885365 0.0
0.32995676804 3.92118147353 0.0
2.00999996712 3.92542383197 0.0
0.190000032884 3.92542383197 0.0
1.56698738743 3.72218882919 0.0
1.33000000474 3.72531695685 0.0
0.848014510843 3.71986098938 0.0
1.09024665585 3.72285801424 0.0
0.610276609989 3.72290563624 0.0
1.54999998543 3.92414142844 0.0
0.629999973146 3.92414137652 0.0
0.869999974031 3.92414141814 0.0
1.11000003579 3.92414141267 0.0
1.79030638642 3.92649353654 0.0
0.370434802927 3.72513294336 0.0
0.410903135411 3.92892991244 0.0
1.33000002597 3.93737911571 0.0
0.129927648482 3.94112154503 0.0
2.07007235152 3.94112154503 0.0
1.93000000928 3.93875927586 0.0
0.26999999072 3.93875927586 0.0
1.40966706061 3.83880068991 0.0
0.770332962441 3.83880062149 0.0
1.24904900022 3.84293377683 0.0
1.01033287484 3.83880060723 0.0
0.530342681434 3.83880307444 0.0
0.189895273961 3.63486992823 0.0
2.00989835291 3.62845703161 0.0
0.998888153878 3.61665036233 0.0
1.47894673873 3.61675180774 0.0
0.51733910646 3.62937665489 0.0
0.705112628302 3.618743723 0.0
1.66672137035 3.63168728155 0.0
1.18508242495 3.61871739348 0.0
1.71000003443 3.94408608591 0.0
0.489999965568 3.94463856597 0.0
1.44983363802 3.94422347836 0.0
0.729999997105 3.94465012565 0.0
1.21016639734 3.94422345842 0.0
0.928621800545 3.94440037102 0.0
2.00626203014 3.81543543551 0.0
0.193627962274 3.81528928332 0.0
1.66628164144 3.83559795895 0.0
1.75661718781 3.81065958113 0.0
1.61143779865 3.94859227761 0.0
0.991673865748 3.95161238438 0.0
0.0604617941233 3.86281264864 0.0
2.13953820588 3.86281264865 0.0
0.300965570716 3.8114148258 0.0
0.2970894797 3.66361086085 0.0
0.398842167194 3.60449226805 0.0
1.51000004877 3.95218393067 0.0
1.90135619383 3.81213273629 0.0
0.669405272842 3.95495208979 0.0
1.07142780558 3.94866325309 0.0
0.592085094025 3.94901139323 0.0
0.831051660929 3.94633985879 0.0
1.14940528892 3.9549521224 0.0
0.44409344258 3.82719938178 0.0
1.49646539728 3.82376850413 0.0
0.683434082651 3.82631713605 0.0
0.92337834777 3.8234861632 0.0
1.16343437877 3.82631615351 0.0
1.90749084149 3.65350700271 0.0
1.8278758005 3.95083911942 0.0
0.37243073327 3.95235211027 0.0
1.29345662549 3.60569899261 0.0
0.813407949226 3.60572380122 0.0
1.29317153636 3.96216077293 0.0
1.367704599 3.96055764734 0.0
1.97071235041 3.96038324024 0.0
0.22928764959 3.96038324024 0.0
2.10610581798 3.66047411138 0.0
0.0938941820177 3.66047411138 0.0
1.67000000105 3.95862953468 0.0
1.74869816704 3.96079301687 0.0
0.531976761939 3.96138655466 0.0
0.451361042387 3.96112774725 0.0
0.771976832233 3.96138887156 0.0
1.88843481911 3.95881554986 0.0
1.61277513709 3.78538823015 0.0
2.13311214501 3.79435403671 0.0
0.0668878549946 3.79435403671 0.0
1.76678797151 3.60286552601 0.0
0.311702446283 3.9611157379 0.0
1.02877762737 3.96159282031 0.0
1.40830122607 3.96143175203 0.0
1.25214210333 3.957355862 0.0
1.59476493393 3.9048774062 0.0
1.56950979124 3.96148017208 0.0
0.890017020275 3.96125792969 0.0
2.03089110475 3.96040268709 0.0
0.169108895255 3.96040268709 0.0
0.939722125942 3.68539157065 0.0
1.41686981874 3.69192854313 0.0
0.0426348006718 3.96101756902 0.0
2.15736519933 3.96101756902 0.0
1.36077308019 3.79177204211 0.0
0.817982383499 3.78962669257 0.0
1.05834720932 3.78780184893 0.0
0.578349529346 3.78781530011 0.0
1.77992711518 3.87652731382 0.0
0.417982153133 3.87594990465 0.0
1.84363633012 3.77741329286 0.0
1.52244994479 3.87704541475 0.0
0.657426528912 3.87734838249 0.0
1.13742651778 3.87734834025 0.0
0.898116026439 3.8800466833 0.0
1.56984259435 3.64465823131 0.0
1.08983016076 3.6446495206 0.0
0.609942357805 3.64483976081 0.0
1.29451769374 3.79627773068 0.0
0.0893439668432 3.96574839433 0.0
2.11065603316 3.96574839433 0.0
2.01422398896 3.86980625824 0.0
0.185776011038 3.86980625824 0.0
0.305957237756 3.87340573745 0.0
1.72977480551 3.68665973332 0.0
1.25418096296 3.69351129461 0.0
0.629999973146 3.96272981435 0.0
1.11000003579 3.96272983221 0.0
0.772975283819 3.69297597031 0.0
1.89089074715 3.86951346173 0.0
0.445448577516 3.69456159386 0.0
1.82621986864 3.89678318705 0.0
2.07135424223 3.81165410377 0.0
0.128645757768 3.81165410377 0.0
0.373320289473 3.89968791662 0.0
1.79000004014 3.96541718891 0.0
0.383302070088 3.78976392323 0.0
0.409457623385 3.96502881851 0.0
1.55531527123 3.78787141386 0.0
1.34861332978 3.89383287415 0.0
0.593245985735 3.89483466551 0.0
0.833245353375 3.89479604398 0.0
1.0732444554 3.8948349405 0.0
0.911896623122 3.59194725763 0.0
0.187580554011 3.70699710313 0.0
2.01241944599 3.70699710313 0.0
1.39201907571 3.59233063354 0.0
2.09635520798 3.90516200201 0.0
0.103644792024 3.90516200201 0.0
1.89086147526 3.72621461413 0.0
1.02102684616 3.70044819701 0.0
1.49813234221 3.70194667869 0.0
0.53965669049 3.70593418829 0.0
1.63719578665 3.69772473547 0.0
0.685447658936 3.70127585046 0.0
1.16541741817 3.70128744764 0.0
0.901649266036 3.76287226775 0.0
0.992351690321 3.90662993531 0.0
1.69131894868 3.90657323657 0.0
1.9699561555 3.91599371502 0.0
0.230043844497 3.91599371502 0.0
1.61980840676 3.85005402918 0.0
2.04685187594 3.90639759008 0.0
0.153148124058 3.90639759008 0.0
0.512139828486 3.90538520837 0.0
1.43057458921 3.90702644399 0.0
0.749149996349 3.90689574876 0.0
[...]
POINT_DATA 1163
VECTORS Displacement float
0.0 0.0 0
0.0 0.0 0
0.00233550833745 -0.000623673916316 0
-0.00254897120835 0.000625257765971 0
0.0 0.0 0
0.0 0.0 0
0.0 0.0 0
0.0 0.0 0
0.0 0.0 0
0.0 0.0 0
0.0 0.0 0
0.0 0.0 0
0.0 0.0 0
0.0 0.0 0
0.0 0.0 0
0.0 0.0 0
0.0 0.0 0
0.0 0.0 0
0.0 0.0 0
0.0 0.0 0
0.0 0.0 0
0.0 0.0 0
0.0 0.0 0
0.0 0.0 0
0.0 0.0 0
0.0 0.0 0
0.0 0.0 0
0.0 0.0 0
0.0 0.0 0
0.0 0.0 0
0.0 0.0 0
0.0 0.0 0
0.0 0.0 0
0.0 0.0 0
0.0 0.0 0
0.000394990520462 -0.00036055043843 0
0.00073074911731 -0.000521010197828 0
0.0010311995119 -0.00059986995717 0
0.00127841903062 -0.000634790651266 0
0.00148155335844 -0.000644749498139 0
0.00165126569095 -0.000643111943048 0
0.00179138849626 -0.000638685499273 0
0.00191276919261 -0.000633154396497 0
0.00201705091445 -0.000628431775228 0
0.00210927595161 -0.000625658515435 0
0.00219191942828 -0.000624243334353 0
0.00226699396901 -0.000623691608175 0
0.00233549354668 -0.000555773061484 0
0.00233515444198 -0.000487454141201 0
0.00233424654712 -0.000419127929236 0
0.00233257184113 -0.000351128962892 0
0.00233025566413 -0.00028401177751 0
0.00232749764484 -0.000218088472364 0
0.00232410057895 -0.000153574476135 0
0.00232062865075 -9.07517305546e-05 0
0.0023166742116 -2.97050250876e-05 0
0.00231283451608 2.95278441507e-05 0
0.00230839777759 8.69642995934e-05 0
0.00230368514722 0.000142103776403 0
0.00229891061385 0.0001951215139 0
0.0022932621926 0.000246128413123 0
0.00228718105074 0.000294784419482 0
0.00227938944386 0.000341294280556 0
0.00227047852524 0.000384997703407 0
0.00225911197121 0.000426386749633 0
0.0022456057814 0.000464015412868 0
0.00222794618002 0.000498000477779 0
0.00220668763915 0.000527514316571 0
0.0021823296388 0.000550938377896 0
0.0021514046971 0.000571039813748 0
0.00211474950032 0.00058193321735 0
0.00206936501496 0.00058689263412 0
0.00201743554088 0.000580563683495 0
0.00195308835595 0.00056513145395 0
0.0018806152669 0.000534355335812 0
0.00179445563176 0.00048913551928 0
0.00169907777954 0.000425648722648 0
0.00158853225502 0.000338566724211 0
0.00145821014607 0.000234906702917 0
0.00131468582324 0.000100217117145 0
0.00114983120994 -6.59303816239e-05 0
0.000967146558658 -0.000269761842283 0
0.0007603157285 -0.000512209824016 0
0.0005280779079 -0.00080664508647 0
0.000269090741927 -0.00115390402218 0
-4.64019158883e-06 -0.00156668374503 0
-0.000314414243251 -0.00204694269663 0
-0.000641215889475 -0.00260540001841 0
-0.000997834844232 -0.00325038991989 0
-0.00138042358421 -0.00400359602325 0
-0.0018167839546 -0.00486618517281 0
-0.0022564998547 -0.00586062438183 0
-0.00272980980281 -0.0070089447382 0
-0.00321341631299 -0.00833085131778 0
-0.0037395831966 -0.00983058898555 0
-0.00425693966875 -0.011559178127 0
-0.0048270565398 -0.0135364992384 0
-0.00538380304304 -0.0158101588556 0
-0.00593945035181 -0.018462143625 0
-0.00648389067426 -0.0215585448819 0
-0.00699846293247 -0.0252722282346 0
-0.00731849573686 -0.029545197818 0
-0.00661814661127 -0.0366149139008 0
-0.00561289199308 -0.0429776273792 0
-0.00472826354455 -0.0488685618455 0
-0.00378343833587 -0.0542434423269 0
-0.00297360704701 -0.0591695949941 0
-0.00231870637452 -0.0636379443318 0
-0.00171875837109 -0.0676409897917 0
-0.0012399549938 -0.0711902902822 0
-0.000856779430143 -0.0742650494517 0
-0.000602335797791 -0.0768793478505 0
-0.000422354060793 -0.0790242957134 0
-0.000335403260149 -0.0806960712517 0
-0.000294492021893 -0.0818925226165 0
-0.000323205136169 -0.0826020448425 0
-0.000408812065903 -0.0828443318475 0
-0.000585988259893 -0.0825891538498 0
-0.000667717970565 -0.0818486886508 0
-0.000680062489703 -0.0806307028257 0
-0.000602353800919 -0.0789359744658 0
-0.000456299756883 -0.0767619617594 0
-0.000210293524612 -0.074122933562 0
0.000147904595658 -0.0710129084434 0
0.000604555775223 -0.0674438554022 0
0.00114345740338 -0.063406229115 0
0.00186961181536 -0.0589274522587 0
0.00260342971376 -0.0539587519911 0
0.00354085842535 -0.0485544266934 0
0.00446820474084 -0.042642022084 0
0.0053759976825 -0.0362177238988 0
0.00596688361231 -0.0290631471263 0
0.0054159005543 -0.0249800284909 0
0.00491097122301 -0.0214988048519 0
0.00431086986683 -0.0185070384161 0
0.00375551862042 -0.0159554810391 0
0.00314887707196 -0.0137398894957 0
0.00251844516852 -0.0118390110362 0
0.00195267001429 -0.010184319357 0
0.00140509592606 -0.00875977300534 0
0.000879707502992 -0.00751098101077 0
0.000382292233295 -0.0064365853367 0
-6.00493860394e-05 -0.00549814605311 0
-0.000487687770474 -0.00469354651526 0
-0.00086097115472 -0.0039928030411 0
-0.0012080440959 -0.00338933360687 0
-0.00151732843 -0.00287505845497 0
-0.00177149196081 -0.00241722125169 0
-0.00199677022435 -0.00202100601723 0
-0.00217586863473 -0.00165646164497 0
-0.00232019241181 -0.00133204583482 0
-0.00242320126369 -0.00101628190505 0
-0.00249265904921 -0.000711038747509 0
-0.00253252274456 -0.00040018977764 0
-0.00254892784641 -7.51506044827e-05 0
-0.00255030043315 0.000267027506252 0
-0.00291382333213 0.000626570933096 0
-0.00333248864022 0.000620914796708 0
-0.0038178009655 0.000590983851239 0
-0.0043685592698 0.000519306984197 0
-0.00496062104202 0.000358857927337 0
-0.00552746799103 0.000103204033098 0
-0.00605457388168 -0.000255498407929 0
-0.00636777714429 -0.000732613595492 0
-0.00636336991991 -0.00125788854622 0
-0.00588641881944 -0.00178092115095 0
-0.00465374699041 -0.00205743709988 0
-0.00273564685263 -0.00176962422316 0
-0.00792112317742 -0.00362436936511 0
0.00153241489111 8.54842008998e-05 0
-0.0105228960661 -0.0177671789794 0
-0.00412639431096 -0.0368223863447 0
0.00710886369154 -0.0306326881144 0
0.00860443920839 -0.0101680935357 0
0.00447441003587 -0.00091998074922 0
0.00245624775002 0.000347529586595 0
-0.00529140743328 -0.00141550516747 0
0.00189701105438 -0.000181900008817 0
0.00205357834322 0.000395766920697 0
0.00283464067582 0.000289081357838 0
-0.00777091101405 -0.010232900057 0
-0.00845552853615 -0.0397894838567 0
0.00478935595082 -0.00411917781155 0
0.00153012140381 -0.0522183840762 0
0.00847586056774 -0.0261769706917 0
-0.00542199552354 -0.00403307843196 0
0.00198298842227 0.000157845084235 0
0.00221875141319 0.000575887718288 0
-0.00738627942506 -0.021805368976 0
0.00255868135288 -0.000426833916108 0
-0.00419397245565 -0.058087100304 0
0.0046977764039 -0.0149602437728 0
0.00493092277271 -0.0518139984811 0
0.00220293115132 0.000589025270402 0
-0.00644785222607 -0.0381318719726 0
0.00206539065994 -0.00219564166186 0
-0.000908563182207 -0.0664516495312 0
0.0023371209151 -0.00730841413826 0
0.00526717146829 -0.0423731190139 0
0.00164154712766 0.000177014213444 0
0.00212140091765 0.000360624399917 0
-0.00388248667781 -0.000569912123196 0
0.00210050931888 -0.000379771651834 0
0.00137823462835 -0.000188393767959 0
-0.00684110677169 -0.00141365055902 0
-0.00380481794416 -0.00777404387262 0
0.00209459694689 6.39125592275e-07 0
-0.00377158574155 -0.00244454361001 0
0.00332465564219 -7.49831295496e-05 0
0.00662831123177 -0.00370073000254 0
0.00191549476097 -0.0302099517811 0
0.00913457917953 -0.0170221576072 0
-0.00829044464496 -0.0241696134137 0
0.00211898634293 0.000266259424258 0
-0.0051810859348 -0.0538652922398 0
0.00162054815742 -0.0652595816934 0
0.00413773801753 -0.0265242901203 0
0.00216192414736 0.000518747547332 0
-0.00946227845114 -0.00798318706191 0
-0.00373195388697 -0.0146117606179 0
0.00127987301336 -0.00417448763023 0
-0.00351696393343 -0.00139934123914 0
0.0021378828631 -0.000184204449058 0
0.0021463359176 0.00022139443438 0
-0.00299487230124 -0.00481316653485 0
0.00409965445778 -0.00167485205797 0
-0.00194365049273 -0.0508836308381 0
0.00618547484988 -0.00860429999957 0
0.00791726036376 -0.0364213131529 0
-0.00987843694133 -0.0281265425657 0
-0.00574505520682 -0.00158651540831 0
0.000796059329025 -4.85729080802e-05 0
0.005348633123 -0.0117662142765 0
0.00326957795564 -0.000721752797213 0
-0.00745561331402 -0.0100207730757 0
-0.00339029682234 -0.0144588353385 0
0.00191183323618 -7.89940310684e-06 0
0.00659626614698 -0.00586658538537 0
0.00214232463145 0.000609050245997 0
-0.00350862920649 -0.0267884911021 0
0.00154374215397 -0.000829598977728 0
-0.0022172018494 -0.0690667865054 0
0.0007399318767 -0.0122598469997 0
0.00223188261919 -0.0633034730398 0
0.00173179557825 -6.83469133875e-06 0
-0.00665777256081 -0.00245858866757 0
0.00250283042131 0.000504193619619 0
0.00219905346791 0.000444344796049 0
0.00200272304477 0.000518157957479 0
0.00233359421783 -0.0543441256588 0
-0.00530937069031 -0.000571189455726 0
0.00186615129697 -0.000415990659639 0
-0.00785615047448 -0.00584627696911 0
-0.00762735479333 -0.00384421008574 0
-0.00654473264136 -0.00477943761209 0
0.00166061519078 -6.20994887244e-05 0
0.00184853163332 0.000227668061598 0
-0.00284870038278 -0.0647157132447 0
0.00242242760962 -0.0361336418392 0
-0.00384827068351 -0.0505348906729 0
0.00023150955262 -0.0714589394991 0
7.36523842308e-05 -0.0199103592493 0
-0.00964269959449 -0.0166649741839 0
0.00355043342924 -0.000305356889562 0
-0.00607170180152 -0.0443527754958 0
0.00529864292627 -0.0434938184492 0
0.00828682556001 -0.015806829157 0
0.00111754199698 5.19216841126e-05 0
0.00217750093646 0.00045536737035 0
-0.0016754019246 -0.01092332578 0
0.0051653204614 -0.0028782385607 0
0.000174823516684 -0.0134360168175 0
-0.000219159538374 -0.00603945759704 0
0.00054520350847 -0.00282376808014 0
0.00219804539824 0.000114341490811 0
-0.00239096980399 -0.00348765767079 0
0.000929274637538 -0.0002279193195 0
-0.00579683269637 -0.00110951802934 0
0.00206558983147 0.000605573986491 0
0.00215426586096 0.000577892507243 0
-0.00226067346229 -0.0376103768448 0
-0.00081023039435 -0.0199485232158 0
-0.0010590995042 -0.0745374750356 0
0.00219378252764 0.000324871708707 0
0.00292809008125 0.000291248417937 0
0.00159797715853 -0.000385025546161 0
-0.0063858252308 -0.000882589000815 0
0.00114802215286 6.11529486798e-06 0
-0.00153457667719 -0.00681089218521 0
0.00127678546236 -0.0477142819645 0
0.00085907519987 -0.00168621000958 0
-0.000227098492348 -0.00864414532355 0
0.00230773358262 0.000470400405599 0
0.00179303591018 0.000351103433212 0
0.00100819014167 -0.0707189780892 0
0.00219854911537 -6.11446154302e-05 0
-0.00285125049823 -0.00208007701302 0
0.00537066323879 -0.0221915233957 0
0.00509069823053 -0.00156953478527 0
-0.00325772703161 -0.000119956694824 0
0.00220378556137 -0.000478264854154 0
0.00561262934754 -0.00300742318779 0
0.000406501428413 -0.0423080564816 0
0.00922497287731 -0.0252946946857 0
-0.00969317622237 -0.0290648261406 0
0.00216336712518 0.000505601727375 0
-0.00736981237177 -0.0149536993298 0
0.00187299778055 0.000283163081953 0
0.00272993529596 3.52017488663e-05 0
-0.00629262140105 -0.0501420048964 0
0.00676849952546 -0.0206089755879 0
0.00348718677228 -0.0550858341331 0
0.00278863288732 -0.000235299506214 0
0.00738596384618 -0.0109826679568 0
-0.00658471859589 -0.0150819647097 0
0.00662500006708 -0.00559563757061 0
-0.00308806668525 -0.000823141241097 0
0.00221819632727 -0.000318667189849 0
0.00191949527864 -1.72931939209e-05 0
-0.00540103909854 -0.00232595208602 0
-0.00599198450586 -0.00632894949259 0
0.00196667958722 0.000162165034573 0
0.00768700207507 -0.00597294271692 0
-0.00256346349305 -0.0598050220035 0
-0.000158920888302 -0.0273181511344 0
-0.0016182456321 -0.0262943425871 0
0.0020110287712 0.00029334201783 0
-0.00969275949538 -0.0108908801855 0
0.00211968389385 0.000443043869961 0
0.00168107133036 -0.000187158591133 0
-0.00636617097862 -0.00143028353931 0
-0.00538471661338 -0.0108720643352 0
0.00218199033734 0.000521693226645 0
-0.00947625877002 -0.010347673234 0
-0.000342000847704 -0.0145247065011 0
0.00334296181645 5.02237369935e-05 0
0.00304933052655 -0.00341907319461 0
-0.00735918475942 -0.0437663480479 0
0.00076415734701 -0.0613561052369 0
0.0066249463678 -0.0319861945531 0
0.00279955657024 -0.0107733239426 0
-0.007098719646 -0.00204111774196 0
0.00124218747894 -4.70841380186e-05 0
0.00360863102662 -0.00129862391247 0
0.00201824314628 -0.000269704494747 0
-0.0044311240683 -0.001022941065 0
0.00154930914208 0.000147046339311 0
0.00790802514411 -0.0197240629945 0
0.00402482568682 -0.000592681462064 0
-0.00944677662671 -0.0176893078667 0
0.00262858622395 9.09138146735e-05 0
-0.00544325667416 -0.0253045997894 0
0.00875805697376 -0.0106438206928 0
0.00451921471464 -0.0351884269836 0
0.005299584276 -0.04784906887 0
0.00222863882908 0.000601255590479 0
0.00207721218099 0.000113043418297 0
-0.00401747123797 -0.00343212085803 0
0.00261705761944 0.000465181257051 0
0.00202869604343 -0.000111402256333 0
-0.00437295220881 -0.00174662864646 0
-0.0071935964408 -0.0297768574557 0
0.00240227021491 -0.00114938756817 0
-0.00239589470318 -0.0629551212084 0
0.00314834607921 -0.0105014572844 0
0.00128303136598 -0.000371886724216 0
-0.00656322879305 -0.00110201862648 0
0.00111003693895 -0.0627775737015 0
-0.00452043507828 -0.000196433981253 0
0.00199928647333 -0.000485119526155 0
0.00125571230489 -0.000448558290012 0
-0.00196085481916 -0.0707924040945 0
-0.00141349128029 -0.0153788012405 0
-0.00686508782797 -0.00383015281205 0
-0.00875652605177 -0.00586598765553 0
0.00451911564296 -0.00630654864302 0
0.00182561653549 0.000125401232084 0
-1.9995202302e-05 -0.00423953690975 0
0.00205231638398 0.000312572888311 0
0.00939706241325 -0.018444532868 0
-0.00791947066007 -0.0334354219138 0
0.00192893687779 -0.000342997274321 0
-0.00342510578994 -0.0636541605575 0
0.00226804056978 -0.0158387635987 0
0.00197376325134 0.000563730759019 0
0.00311336376165 -0.0423054998117 0
0.000747843131016 1.11197499098e-05 0
0.00220849108519 0.000222696376306 0
-0.00180922700049 -0.00489319234907 0
-0.00179182257558 -0.0452731098256 0
-0.000535154215703 -0.0760642053371 0
0.001641708436 0.000181101787745 0
0.000516889603652 -0.0737313017028 0
0.00220908733891 0.000382951776014 0
0.00221607586377 -0.000183725858325 0
-0.00293927418846 -0.00143031895041 0
-0.000764713821543 -0.008378447512 0
0.00231077731991 0.000521815039432 0
0.00221945528838 3.65197946839e-05 0
-0.00238842041749 -0.00279649755251 0
-0.00958938294314 -0.0219702881208 0
0.00355830063597 -0.000755676632298 0
-0.00417930820906 -0.0502254097035 0
0.00718787568578 -0.0126520358507 0
0.00649405759849 -0.0431762421719 0
0.000611651099417 -1.64666811613e-05 0
-0.00429283592747 -0.00163737147871 0
0.0021772182375 0.00057110204386 0
0.00354060705286 -0.0559656526175 0
-0.00523278324999 -0.0194133418033 0
0.00272241265387 -0.00525844506749 0
-0.000631705021601 -0.0572406245515 0
0.00751299378658 -0.0360425458906 0
-0.00877512793118 -0.0351742613798 0
-0.00340083340801 -0.000770884173226 0
0.000442298372321 -8.52853252863e-05 0
-0.00482179890163 -0.00257763923264 0
0.00208266645502 0.000280741236631 0
-0.00453588852842 -0.00592449817882 0
0.00394125758747 -0.000386314860721 0
0.00356392783468 -0.00231747892574 0
0.00304564876999 -0.0599462132655 0
-0.0102165500291 -0.0124597099116 0
0.00217461871267 3.24671602597e-05 0
-0.00474616817689 -0.0576114695637 0
0.00396530124531 -0.0203564693649 0
0.00177651238356 -0.000281182688173 0
-0.00585488270982 -0.00107354143974 0
0.00210733510318 0.000603405741074 0
0.00205823814684 0.000402312725776 0
0.00153092059645 -7.45664524897e-05 0
-0.00703584158296 -0.00198230850412 0
-0.000343088409436 -0.0271655823328 0
0.00109625741362 -0.00079643668699 0
-0.00171309348934 -0.0729565420343 0
0.000977830085962 -0.0669270096361 0
-0.00126082910705 -0.012665138451 0
0.00766010595857 -0.00643631459455 0
0.00237794103125 0.000565889172591 0
0.00170586493389 -0.000486541648519 0
-0.00597772650393 -0.000541748306982 0
0.00556283237379 -0.00211014095474 0
0.00121099387285 -0.000151493120446 0
0.00204911321384 0.000380242086291 0
0.00413980578337 -0.00392004513862 0
0.00592674884398 -0.00284922066622 0
-0.00293003635753 -0.00663064838464 0
0.00198003695524 -0.0211602779984 0
-0.00741863317434 -0.00304669596232 0
-0.00124410301677 -0.0344677978009 0
-0.00841577369884 -0.00807144175514 0
0.00252821993756 0.000336675371032 0
-0.00506286549261 -0.00467087895787 0
-0.00355196915891 -0.000991191779755 0
0.000499727588915 -0.000234718949421 0
0.00223024673693 -0.000403181196141 0
-0.00307539208974 -0.000458780207697 0
0.00206825382915 0.000364728276512 0
0.00443673428243 -0.00295241322925 0
-0.00126178323971 -0.00930013982491 0
-0.00390114100805 2.82704642883e-05 0
0.00209829412389 -0.000519058994324 0
-0.00473103124069 -0.00649994828198 0
0.0012074520306 4.31231068658e-05 0
-0.00844047369566 -0.00600353279748 0
0.00443252198636 -0.0068677913121 0
0.00209550681514 -0.000412049759671 0
-0.0104565645464 -0.0233982186893 0
-0.00597954399247 -0.00791690911606 0
0.00473980222944 -0.00140701768408 0
0.0083139903099 -0.0304412570961 0
0.00184350619464 0.000488536838676 0
8.01037269637e-05 -0.058033736587 0
0.00198204003625 -0.00314742046919 0
0.00181131831739 -9.23451203515e-05 0
-0.00597491606592 -0.00186469802941 0
0.0009817677594 -3.62234112373e-05 0
0.0076441770147 -0.00797803690738 0
-0.00100892333568 -0.0442737402814 0
-0.00247695791351 -0.0407051916029 0
-0.000190858475364 -0.0511565499376 0
0.00837304006272 -0.0323098456172 0
-0.00943375351607 -0.033605915915 0
0.00455050807455 -0.00266258874083 0
0.000171535652603 -0.00217978712553 0
-0.00148657227988 -0.00753767143981 0
0.00123155874408 7.64243016145e-05 0
0.00211696713226 -0.000281027342166 0
-0.00373286221743 -0.000966837284962 0
-0.00160404744192 -0.0566891301355 0
-0.00182254205775 -0.0655099374168 0
-0.000609559473945 -0.0332824388479 0
-0.00206779529298 -0.0224889803559 0
-0.00663382257429 -0.00138923007568 0
0.00115825699296 -0.000158845799143 0
0.00242895778805 0.00045968042263 0
0.00201418664178 -0.000375177807544 0
-0.00444421079587 -0.000618917515739 0
0.00195072036898 0.000299268786598 0
0.00127179306436 -0.000115816913501 0
-0.000153795127857 -0.0788425569423 0
-0.00622928311006 -0.0368313654106 0
0.00912016660761 -0.0142462952698 0
0.00220071163695 0.000481788964498 0
0.0049980470094 -0.00822276667627 0
0.000215227527301 -0.0122588785258 0
-0.00304661599353 0.000144869627253 0
0.00224235900645 -0.000532215222203 0
0.00205358709767 -0.0593653695666 0
0.00657663013589 -0.0259027611978 0
-0.00683141126799 -0.0482042614559 0
-0.00589256262893 -0.00317659442351 0
0.00173432307209 0.000208954438834 0
0.0019256138702 7.15086762013e-05 0
0.00211526460234 -0.000104490109455 0
-0.00363819566754 -0.00179188275176 0
0.00214440275315 0.000419210515758 0
0.00217538263453 0.000547195964817 0
0.00115869478581 -0.0169482353407 0
0.0026438323039 0.00039751510664 0
0.00312690824291 4.80233791794e-05 0
-0.00747947508137 -0.0424532128476 0
0.00372743561164 -0.0475306489502 0
0.00852256484539 -0.0206963958217 0
-0.00875541659324 -0.0132661565946 0
0.00681131743413 -0.0428802238595 0
-0.0103985196961 -0.0195843822458 0
0.00330597027476 -0.00118563161054 0
-0.0090417311628 -0.0272172778056 0
-0.00275156292491 -0.0560653594651 0
0.00202008905681 4.4230428394e-05 0
0.00413584737533 -0.000816887570048 0
-0.00461332446784 -0.00273951805806 0
-0.0045060516445 -0.042674541872 0
0.00683604266645 -0.0370305877516 0
0.00821344498367 -0.0116906258263 0
0.00219469467826 0.00054157855045 0
0.00237494454599 0.000549993667173 0
-0.00593880122212 -0.0441277843882 0
-6.03029911119e-05 -0.0674513894928 0
0.00502326207832 -0.0367915347574 0
-0.000350537384881 -0.00351344589376 0
-0.000914253615625 -0.00518535971606 0
0.00307808972866 -0.000300579359178 0
-0.0053657867437 -0.051247025567 0
0.00678916359189 -0.0161083982123 0
0.00505862219916 -0.049408920892 0
0.00224644552987 0.000173101633993 0
-0.00144603399577 -0.00424672246741 0
-0.00334626919923 -0.00952909379336 0
0.00270788308903 0.000258937484303 0
0.00166625872335 -0.00132446513492 0
0.00129794186084 -0.00984734753279 0
0.00222199055703 0.000532431196297 0
0.00223964195032 0.000270778107305 0
-0.00189237853203 -0.0689246934777 0
-0.00196521869632 -0.018377645809 0
0.00167253959623 6.21129645302e-05 0
-0.00731461277273 -0.00314801453842 0
0.00873919687035 -0.0238843265686 0
-0.0050775005605 -0.000217444752819 0