# vtk DataFile Version 2.0
Generated with Solid Solver
ASCII
DATASET UNSTRUCTURED_GRID
POINTS 1163 float 
0.0 3.5 0.0
2.2 3.5 0.0
2.2 4.0 0.0
0.0 4.0 0.0
0.0687499999999 3.5 0.0
0.1375 3.5 0.0
0.20625 3.5 0.0
0.275 3.5 0.0
0.343749999999 3.5 0.0
0.412499999999 3.5 0.0
0.481249999999 3.5 0.0
0.549999999999 3.5 0.0
0.618749999998 3.5 0.0
0.687499999998 3.5 0.0
0.756249999998 3.5 0.0
0.824999999998 3.5 0.0
0.893749999998 3.5 0.0
0.962499999997 3.5 0.0
1.03125 3.5 0.0
1.1 3.5 0.0
1.16875 3.5 0.0
1.2375 3.5 0.0
1.30625 3.5 0.0
1.375 3.5 0.0
1.44375 3.5 0.0
1.5125 3.5 0.0
1.58125 3.5 0.0
1.65 3.5 0.0
1.71875 3.5 0.0
1.7875 3.5 0.0
1.85625 3.5 0.0
1.925 3.5 0.0
1.99375 3.5 0.0
2.0625 3.5 0.0
2.13125 3.5 0.0
2.2 3.56430812579 0.0
2.2 3.6227083524 0.0
2.2 3.67574343203 0.0
2.2 3.72390623714 0.0
2.2 3.76764438299 0.0
2.2 3.80736436348 0.0
2.2 3.84343531161 0.0
2.2 3.87619247056 0.0
2.2 3.90594026646 0.0
2.2 3.93295517223 0.0
2.2 3.9574882542 0.0
2.2 3.97976750927 0.0
2.18000003888 4.0 0.0
2.15999995974 4.0 0.0
2.13999995594 4.0 0.0
2.12000003893 4.0 0.0
2.0999999813 4.0 0.0
2.07999993507 4.0 0.0
2.06000001965 4.0 0.0
2.04000002354 4.0 0.0
2.01999993997 4.0 0.0
1.99999999426 4.0 0.0
1.98000004623 4.0 0.0
1.95999996625 4.0 0.0
1.93999996787 4.0 0.0
1.92000005069 4.0 0.0
1.90000001292 4.0 0.0
1.87999994967 4.0 0.0
1.86000003245 4.0 0.0
1.84000003166 4.0 0.0
1.81999995194 4.0 0.0
1.80000002065 4.0 0.0
1.78000005962 4.0 0.0
1.75999997703 4.0 0.0
1.73999998149 4.0 0.0
1.72000006236 4.0 0.0
1.70000000651 4.0 0.0
1.67999995967 4.0 0.0
1.66000004242 4.0 0.0
1.64000004304 4.0 0.0
1.61999996152 4.0 0.0
1.6000000096 4.0 0.0
1.58000006667 4.0 0.0
1.55999998704 4.0 0.0
1.53999998381 4.0 0.0
1.52000006764 4.0 0.0
1.5000000299 4.0 0.0
1.47999996242 4.0 0.0
1.46000004337 4.0 0.0
1.4400000454 4.0 0.0
1.41999996386 4.0 0.0
1.40000002834 4.0 0.0
1.38000006734 4.0 0.0
1.35999998576 4.0 0.0
1.33999998537 4.0 0.0
1.32000006658 4.0 0.0
1.30000001585 4.0 0.0
1.27999996279 4.0 0.0
1.26000004759 4.0 0.0
1.24000004493 4.0 0.0
1.2199999616 4.0 0.0
1.20000000906 4.0 0.0
1.18000006792 4.0 0.0
1.15999998616 4.0 0.0
1.13999999119 4.0 0.0
1.12000007157 4.0 0.0
1.1 4.0 0.0
1.07999992843 4.0 0.0
1.06000000881 4.0 0.0
1.04000001384 4.0 0.0
1.01999993209 4.0 0.0
0.999999990948 4.0 0.0
0.98000003841 4.0 0.0
0.959999955072 4.0 0.0
0.939999952416 4.0 0.0
0.920000037214 4.0 0.0
0.899999984154 4.0 0.0
0.879999933427 4.0 0.0
0.860000014636 4.0 0.0
0.840000014246 4.0 0.0
0.819999932662 4.0 0.0
0.79999997166 4.0 0.0
0.780000036145 4.0 0.0
0.759999954604 4.0 0.0
0.73999995663 4.0 0.0
0.72000003758 4.0 0.0
0.699999970103 4.0 0.0
0.679999932361 4.0 0.0
0.660000016189 4.0 0.0
0.640000012962 4.0 0.0
0.61999993333 4.0 0.0
0.599999990406 4.0 0.0
0.58000003848 4.0 0.0
0.559999956964 4.0 0.0
0.539999957581 4.0 0.0
0.520000040329 4.0 0.0
0.499999993489 4.0 0.0
0.479999937647 4.0 0.0
0.460000018512 4.0 0.0
0.440000022972 4.0 0.0
0.419999940378 4.0 0.0
0.399999979352 4.0 0.0
0.380000048063 4.0 0.0
0.359999968347 4.0 0.0
0.339999967553 4.0 0.0
0.320000050328 4.0 0.0
0.299999987077 4.0 0.0
0.279999949312 4.0 0.0
0.260000032129 4.0 0.0
0.240000033752 4.0 0.0
0.219999953776 4.0 0.0
0.200000005737 4.0 0.0
0.180000060031 4.0 0.0
0.159999976465 4.0 0.0
0.139999980354 4.0 0.0
0.120000064926 4.0 0.0
0.100000018697 4.0 0.0
0.0799999610675 4.0 0.0
0.0600000440571 4.0 0.0
0.0400000402596 4.0 0.0
0.0199999611169 4.0 0.0
0.0 3.97976750927 0.0
0.0 3.9574882542 0.0
0.0 3.93295517223 0.0
0.0 3.90594026646 0.0
0.0 3.87619247056 0.0
0.0 3.84343531161 0.0
0.0 3.80736436348 0.0
0.0 3.76764438299 0.0
0.0 3.72390623714 0.0
0.0 3.67574343203 0.0
0.0 3.6227083524 0.0
0.0 3.56430812579 0.0
0.249757963562 3.75212589829 0.0
1.94999996706 3.74954522137 0.0
0.488710285893 3.75947702441 0.0
0.726520490699 3.7655965719 0.0
0.967283134849 3.7597072979 0.0
1.20619032017 3.75831098673 0.0
1.45842774915 3.76733088374 0.0
1.69012076678 3.7622332834 0.0
0.130754044069 3.86878249167 0.0
2.06924595593 3.86878249167 0.0
1.8299999918 3.84622455633 0.0
1.56816462369 3.85034872999 0.0
0.369913859351 3.84868157925 0.0
0.608733620231 3.84706187144 0.0
1.33069778866 3.84790908234 0.0
0.84323446252 3.84762979148 0.0
1.08873170817 3.84705870913 0.0
0.250539365135 3.87785524304 0.0
1.94967747948 3.87849609822 0.0
1.73218750075 3.8916046151 0.0
0.468661874066 3.89189322974 0.0
1.47574192429 3.89639134117 0.0
0.704258110321 3.8963912684 0.0
1.18331258449 3.8976320365 0.0
0.949999953744 3.89208018478 0.0
1.64795374468 3.91749779939 0.0
0.548928463645 3.91905583847 0.0
1.38619509199 3.91928594438 0.0
0.788926872841 3.91906062101 0.0
1.27071160784 3.91777932845 0.0
1.02999997296 3.91685174433 0.0
1.81733541416 3.69950870754 0.0
1.86999999106 3.91823503401 0.0
0.071252620538 3.93011431841 0.0
2.12874737946 3.93011431841 0.0
2.07400690796 3.74293885365 0.0
0.125993092043 3.74293885365 0.0
0.32995676804 3.92118147353 0.0
2.00999996712 3.92542383197 0.0
0.190000032884 3.92542383197 0.0
1.56698738743 3.72218882919 0.0
1.33000000474 3.72531695685 0.0
0.848014510843 3.71986098938 0.0
1.09024665585 3.72285801424 0.0
0.610276609989 3.72290563624 0.0
1.54999998543 3.92414142844 0.0
0.629999973146 3.92414137652 0.0
0.869999974031 3.92414141814 0.0
1.11000003579 3.92414141267 0.0
1.79030638642 3.92649353654 0.0
0.370434802927 3.72513294336 0.0
0.410903135411 3.92892991244 0.0
1.33000002597 3.93737911571 0.0
0.129927648482 3.94112154503 0.0
2.07007235152 3.94112154503 0.0
1.93000000928 3.93875927586 0.0
0.26999999072 3.93875927586 0.0
1.40966706061 3.83880068991 0.0
0.770332962441 3.83880062149 0.0
1.24904900022 3.84293377683 0.0
1.01033287484 3.83880060723 0.0
0.530342681434 3.83880307444 0.0
0.189895273961 3.63486992823 0.0
2.00989835291 3.62845703161 0.0
0.998888153878 3.61665036233 0.0
1.47894673873 3.61675180774 0.0
0.51733910646 3.62937665489 0.0
0.705112628302 3.618743723 0.0
1.66672137035 3.63168728155 0.0
1.18508242495 3.61871739348 0.0
1.71000003443 3.94408608591 0.0
0.489999965568 3.94463856597 0.0
1.44983363802 3.94422347836 0.0
0.729999997105 3.94465012565 0.0
1.21016639734 3.94422345842 0.0
0.928621800545 3.94440037102 0.0
2.00626203014 3.81543543551 0.0
0.193627962274 3.81528928332 0.0
1.66628164144 3.83559795895 0.0
1.75661718781 3.81065958113 0.0
1.61143779865 3.94859227761 0.0
0.991673865748 3.95161238438 0.0
0.0604617941233 3.86281264864 0.0
2.13953820588 3.86281264865 0.0
0.300965570716 3.8114148258 0.0
0.2970894797 3.66361086085 0.0
0.398842167194 3.60449226805 0.0
1.51000004877 3.95218393067 0.0
1.90135619383 3.81213273629 0.0
0.669405272842 3.95495208979 0.0
1.07142780558 3.94866325309 0.0
0.592085094025 3.94901139323 0.0
0.831051660929 3.94633985879 0.0
1.14940528892 3.9549521224 0.0
0.44409344258 3.82719938178 0.0
1.49646539728 3.82376850413 0.0
0.683434082651 3.82631713605 0.0
0.92337834777 3.8234861632 0.0
1.16343437877 3.82631615351 0.0
1.90749084149 3.65350700271 0.0
1.8278758005 3.95083911942 0.0
0.37243073327 3.95235211027 0.0
1.29345662549 3.60569899261 0.0
0.813407949226 3.60572380122 0.0
1.29317153636 3.96216077293 0.0
1.367704599 3.96055764734 0.0
1.97071235041 3.96038324024 0.0
0.22928764959 3.96038324024 0.0
2.10610581798 3.66047411138 0.0
0.0938941820177 3.66047411138 0.0
1.67000000105 3.95862953468 0.0
1.74869816704 3.96079301687 0.0
0.531976761939 3.96138655466 0.0
0.451361042387 3.96112774725 0.0
0.771976832233 3.96138887156 0.0
1.88843481911 3.95881554986 0.0
1.61277513709 3.78538823015 0.0
2.13311214501 3.79435403671 0.0
0.0668878549946 3.79435403671 0.0
1.76678797151 3.60286552601 0.0
0.311702446283 3.9611157379 0.0
1.02877762737 3.96159282031 0.0
1.40830122607 3.96143175203 0.0
1.25214210333 3.957355862 0.0
1.59476493393 3.9048774062 0.0
1.56950979124 3.96148017208 0.0
0.890017020275 3.96125792969 0.0
2.03089110475 3.96040268709 0.0
0.169108895255 3.96040268709 0.0
0.939722125942 3.68539157065 0.0
1.41686981874 3.69192854313 0.0
0.0426348006718 3.96101756902 0.0
2.15736519933 3.96101756902 0.0
1.36077308019 3.79177204211 0.0
0.817982383499 3.78962669257 0.0
1.05834720932 3.78780184893 0.0
0.578349529346 3.78781530011 0.0
1.77992711518 3.87652731382 0.0
0.417982153133 3.87594990465 0.0
1.84363633012 3.77741329286 0.0
1.52244994479 3.87704541475 0.0
0.657426528912 3.87734838249 0.0
1.13742651778 3.87734834025 0.0
0.898116026439 3.8800466833 0.0
1.56984259435 3.64465823131 0.0
1.08983016076 3.6446495206 0.0
0.609942357805 3.64483976081 0.0
1.29451769374 3.79627773068 0.0
0.0893439668432 3.96574839433 0.0
2.11065603316 3.96574839433 0.0
2.01422398896 3.86980625824 0.0
0.185776011038 3.86980625824 0.0
0.305957237756 3.87340573745 0.0
1.72977480551 3.68665973332 0.0
1.25418096296 3.69351129461 0.0
0.629999973146 3.96272981435 0.0
1.11000003579 3.96272983221 0.0
0.772975283819 3.69297597031 0.0
1.89089074715 3.86951346173 0.0
0.445448577516 3.69456159386 0.0
1.82621986864 3.89678318705 0.0
2.07135424223 3.81165410377 0.0
0.128645757768 3.81165410377 0.0
0.373320289473 3.89968791662 0.0
1.79000004014 3.96541718891 0.0
0.383302070088 3.78976392323 0.0
0.409457623385 3.96502881851 0.0
1.55531527123 3.78787141386 0.0
1.34861332978 3.89383287415 0.0
0.593245985735 3.89483466551 0.0
0.833245353375 3.89479604398 0.0
1.0732444554 3.8948349405 0.0
0.911896623122 3.59194725763 0.0
0.187580554011 3.70699710313 0.0
2.01241944599 3.70699710313 0.0
1.39201907571 3.59233063354 0.0
2.09635520798 3.90516200201 0.0
0.103644792024 3.90516200201 0.0
1.89086147526 3.72621461413 0.0
1.02102684616 3.70044819701 0.0
1.49813234221 3.70194667869 0.0
0.53965669049 3.70593418829 0.0
1.63719578665 3.69772473547 0.0
0.685447658936 3.70127585046 0.0
1.16541741817 3.70128744764 0.0
0.901649266036 3.76287226775 0.0
0.992351690321 3.90662993531 0.0
1.69131894868 3.90657323657 0.0
1.9699561555 3.91599371502 0.0
0.230043844497 3.91599371502 0.0
1.61980840676 3.85005402918 0.0
2.04685187594 3.90639759008 0.0
0.153148124058 3.90639759008 0.0
0.512139828486 3.90538520837 0.0
1.43057458921 3.90702644399 0.0
0.749149996349 3.90689574876 0.0
[...]
POINT_DATA 1163
VECTORS Displacement float
0.0 0.0 0
0.0 0.0 0
0.0100463956583 -0.00184541239626 0
-0.0110593042156 -0.00154379973624 0
0.0 0.0 0
0.0 0.0 0
0.0 0.0 0
0.0 0.0 0
0.0 0.0 0
0.0 0.0 0
0.0 0.0 0
0.0 0.0 0
0.0 0.0 0
0.0 0.0 0
0.0 0.0 0
0.0 0.0 0
0.0 0.0 0
0.0 0.0 0
0.0 0.0 0
0.0 0.0 0
0.0 0.0 0
0.0 0.0 0
0.0 0.0 0
0.0 0.0 0
0.0 0.0 0
0.0 0.0 0
0.0 0.0 0
0.0 0.0 0
0.0 0.0 0
0.0 0.0 0
0.0 0.0 0
0.0 0.0 0
0.0 0.0 0
0.0 0.0 0
0.0 0.0 0
0.00251555186743 -0.00196470794269 0
0.00452157703901 -0.00261622439804 0
0.00613606030257 -0.00275326108761 0
0.00726035826543 -0.00264284682216 0
0.00804071999189 -0.00245265748778 0
0.00857745430777 -0.00225060790838 0
0.00892977276343 -0.00209159214544 0
0.0092003316836 -0.00197358859733 0
0.00940246286007 -0.00189764426437 0
0.00957645121402 -0.00186288053792 0
0.00973919743579 -0.00184806870109 0
0.00989650961965 -0.00184487401597 0
0.0100469450572 -0.00169597024613 0
0.010045908124 -0.00153908887638 0
0.0100376935184 -0.00137487512734 0
0.0100185260361 -0.00120499008309 0
0.00998601360659 -0.00103371153456 0
0.00993873511908 -0.000868144558606 0
0.00987334795343 -0.000707226660578 0
0.00979285803228 -0.000564428715632 0
0.00969217387497 -0.000435076191438 0
0.00957836873527 -0.000331938561767 0
0.00943932785449 -0.000251917098423 0
0.00928278132763 -0.000207763291202 0
0.00911178850518 -0.000202957212043 0
0.00891437859768 -0.000235567141904 0
0.00870380220375 -0.000319769914868 0
0.00846064643751 -0.000452351671421 0
0.00819951285702 -0.000650493729362 0
0.00791006142939 -0.00090840797283 0
0.00759885971706 -0.00125016277847 0
0.00724306140231 -0.00167579407063 0
0.00686782698068 -0.00220095364693 0
0.00648113795769 -0.00283744972191 0
0.00604166876618 -0.00357813845248 0
0.0055805290532 -0.00446837503558 0
0.00506221984968 -0.00550925370756 0
0.00454626829741 -0.00672602081733 0
0.00396601433315 -0.00813065644202 0
0.00335723003463 -0.00977150852372 0
0.00271949498151 -0.0116525341749 0
0.0021177989936 -0.0138086367623 0
0.00149561872449 -0.0163177016455 0
0.000782919809131 -0.0191769197185 0
0.000151409469054 -0.0224601757582 0
-0.000472771205618 -0.0262659898331 0
-0.000988398251522 -0.0306852324411 0
-0.00138236742683 -0.0358791342136 0
-0.00147383800784 -0.0420569590317 0
-0.000797595223761 -0.0498693428818 0
0.000898750080849 -0.059663506496 0
0.00277523045315 -0.0687332313034 0
0.00443074871554 -0.0774662304661 0
0.00594424141513 -0.085597163529 0
0.00718432894353 -0.0933143191737 0
0.00829102561735 -0.10055004945 0
0.00904999190922 -0.107380841733 0
0.009548371456 -0.113728892518 0
0.00978605191172 -0.119700285829 0
0.00983716652201 -0.125169907678 0
0.00961131845405 -0.130180258921 0
0.00918964012997 -0.134694367752 0
0.00857015566389 -0.138715826638 0
0.00775788679808 -0.142231949698 0
0.00675940795331 -0.14522722591 0
0.00560787084512 -0.147695874485 0
0.00432818275267 -0.149625350955 0
0.00292117959849 -0.151008363226 0
0.00144185833591 -0.151826707224 0
-0.000124231301971 -0.152039988962 0
-0.00182666116967 -0.15183173767 0
-0.00335919739208 -0.150993520893 0
-0.00476046067787 -0.149602330239 0
-0.00604586112468 -0.147661004357 0
-0.00720192799191 -0.145182934838 0
-0.00820847546285 -0.142176470592 0
-0.00905353717687 -0.138645293683 0
-0.00968975836045 -0.134610180747 0
-0.0101828871661 -0.130065567219 0
-0.0103930548121 -0.125044136197 0
-0.0103775589517 -0.119539752244 0
-0.0101142521312 -0.113595308829 0
-0.00960561311025 -0.107225655536 0
-0.00883743758718 -0.100379560872 0
-0.00786189799385 -0.0930899323679 0
-0.00655893783953 -0.0853712863163 0
-0.00510809741242 -0.0772074944942 0
-0.00346167193346 -0.0684344475865 0
-0.00161594024698 -0.0593266762289 0
0.000121157451671 -0.0495143401623 0
0.000616879090757 -0.0419479526679 0
0.000374688914838 -0.0357585288323 0
-0.000104284919645 -0.0306187027847 0
-0.000659555887315 -0.0262729956904 0
-0.001273971302 -0.0225597840313 0
-0.00197365885483 -0.0192868637456 0
-0.00264611376931 -0.0164590461312 0
-0.00338948824439 -0.0140079173898 0
-0.00406380535501 -0.0119011286946 0
-0.00473754352173 -0.0100844201193 0
-0.00534610770128 -0.00849987396833 0
-0.00596103800474 -0.00713721236022 0
-0.00656301449239 -0.00598086746625 0
-0.00709865718151 -0.00499158179088 0
-0.00760714322494 -0.00417124646088 0
-0.0080792098145 -0.00347698746823 0
-0.00852223076784 -0.00291349093729 0
-0.00891257832812 -0.0024511049922 0
-0.00928379743733 -0.00209319818043 0
-0.00960701595498 -0.00181378265282 0
-0.00990491042205 -0.00161256321877 0
-0.0101700105917 -0.00148247236859 0
-0.0103876627309 -0.00139782327466 0
-0.0105804048215 -0.0013640718331 0
-0.010734185284 -0.00135628670876 0
-0.0108585620383 -0.00138274555861 0
-0.0109479328469 -0.00141707071532 0
-0.0110087435953 -0.00146116845323 0
-0.0110440759887 -0.00150131821376 0
-0.0110588924313 -0.00152980133337 0
-0.0110604122818 -0.00154381351553 0
-0.0110615911446 -0.00154270863866 0
-0.011078801747 -0.00154812068728 0
-0.0111183852409 -0.00157506107966 0
-0.0111743692194 -0.00163906799464 0
-0.0112201540399 -0.0017809941063 0
-0.0111884208359 -0.00200482058471 0
-0.0110597143549 -0.00231326398614 0
-0.0106595051768 -0.00271519975986 0
-0.00988491869909 -0.0031273613672 0
-0.00857036005291 -0.00346216238949 0
-0.00644870237783 -0.00344991019474 0
-0.0036472093124 -0.00268874010505 0
-0.0122850185281 -0.0018698003776 0
0.00896250522596 -0.000402971846929 0
-0.0186363189923 -0.0125624583398 0
-0.021004008845 -0.0450627813343 0
-0.00635797917024 -0.0687369186408 0
0.0130841430586 -0.0621493066263 0
0.0213094939883 -0.0291065897653 0
0.0147087429523 -0.00570308334518 0
-0.0114093364914 -0.00130071941705 0
0.00925444114225 -0.00075246932088 0
0.0107250589751 -0.00102607180126 0
0.0166958151559 -0.0171175190318 0
-0.0138857221239 -0.00515309444114 0
-0.0208342119899 -0.033409965357 0
0.019752311976 -0.065267038935 0
-0.0158835476001 -0.0826661912312 0
0.00403065654627 -0.0972591600713 0
-0.0117569671709 -0.00172660128874 0
0.00956410479653 -0.00010757980499 0
0.0107893348041 -0.00367926315948 0
-0.0138600409908 -0.0124026527054 0
0.0169362738718 -0.0353644048267 0
-0.0193733005792 -0.0628674712645 0
0.0111099806381 -0.10536738234 0
-0.00777634065447 -0.109448881698 0
0.0102940753509 -0.00881729746533 0
-0.0134565578403 -0.0238201880833 0
0.016811017524 -0.063536274257 0
-0.0162571249944 -0.0904657822479 0
0.0150611148389 -0.0951621099613 0
-0.00109540888599 -0.121792728908 0
0.0104176476203 -0.00165273791686 0
0.00942250060244 -0.000380083868108 0
-0.0111305583328 -0.00147271080731 0
0.00956205301997 -0.00127532555976 0
0.00786568475765 -0.000884287869483 0
-0.0106897475984 -0.00143987327018 0
-0.0108711686788 -0.00350103435901 0
0.00945486157399 -0.000298205181268 0
-0.0109720270979 -0.00127051114493 0
0.0180971116615 -0.013314874106 0
0.0187705995614 -0.0407626713332 0
-0.0143123904845 -0.0497514434235 0
0.0038838344088 -0.0585164740279 0
-0.0206379998385 -0.0231804281089 0
0.0113836611016 -0.0204887753967 0
-0.0157272775577 -0.0435377868731 0
-0.0126234880969 -0.109194190837 0
0.00542813942821 -0.121898348841 0
0.00925782786046 -0.00169851018985 0
-0.0146507924372 -0.00480130022606 0
-0.0105907133494 -0.00751315393251 0
0.0150289351657 -0.0841798934454 0
-0.0109866784864 -0.00128898265985 0
0.00957116457454 -0.000746397768333 0
0.00929528695093 -9.05464371283e-05 0
-0.0104794018727 -0.00202615020958 0
0.0211902706139 -0.0460994227835 0
-0.0197526706179 -0.0674315986059 0
0.0161534387099 -0.0795273110033 0
-0.00285414430883 -0.0950190073205 0
-0.01871355156 -0.019513509472 0
-0.00786086921381 -0.00117828339337 0
0.0052594749661 -0.000518784375323 0
-0.00240077607475 -0.0288052276481 0
0.013766288012 -0.0120669035073 0
-0.0140573356364 -0.00870238956818 0
-0.0140193026215 -0.0181047973523 0
0.0114767154243 -0.0046206154009 0
0.00758369694724 -0.0271464306626 0
0.00840005339985 -0.00470137558789 0
-0.00954212988492 -0.0148868139055 0
0.0121540841205 -0.0447572001597 0
-0.0149824935743 -0.0791800756521 0
0.0114246969738 -0.115356867533 0
-0.00864881938994 -0.124604827051 0
0.00913116223769 -0.000367029623681 0
-0.0118596106805 -0.00134368315851 0
0.0142666941027 -0.00741200348371 0
0.0125155149487 -0.00295246593977 0
0.00791843908759 -0.0122771027124 0
-0.0040549006263 -0.132849358415 0
-0.0113107984751 -0.00163601721745 0
0.00914520648791 -0.00143839636811 0
-0.0132978972542 -0.00277659460711 0
-0.0109695588581 -0.00236246444961 0
-0.00994225692461 -0.00362869319995 0
0.00860870620179 -0.0283132219563 0
0.0100355791256 -0.000383446971069 0
-0.0126718178515 -0.0593909501375 0
0.00228033136226 -0.132613876885 0
-0.01075117834 -0.0335068953039 0
-0.0134664791039 -0.107730737092 0
0.00788069958777 -0.128433549929 0
-0.016392242451 -0.00983220557423 0
0.02018474843 -0.0273068752551 0
-0.0221034295995 -0.0471027647519 0
-0.0102665566625 -0.085401333259 0
0.0102877731183 -0.0856822767735 0
0.0073471074224 -0.000741361982304 0
0.00872680400208 -0.000933147393297 0
-0.00929925728123 -0.00530512075069 0
0.0109489588402 -0.0200213483993 0
-0.0104247892758 -0.02101174842 0
0.0126471376934 -0.100572039326 0
0.0121412845549 -0.0763009668659 0
0.00935768067439 -0.000149365011378 0
-0.010304467525 -0.00154954446274 0
0.00575468935033 -0.00106549312126 0
-0.00816089338027 -0.00150319099386 0
0.00725416824327 -0.00714282691721 0
0.00783313926913 -0.00303000098677 0
-0.00760723281724 -0.0209297275086 0
-0.00796189540019 -0.010788929963 0
-0.0134034259531 -0.0959159907443 0
0.00894778383614 -0.000264195735492 0
0.0171597096592 -0.0112154038851 0
0.00850582408014 -0.00146054486751 0
-0.0111286209442 -0.00179015722024 0
0.00767743829958 -0.00197952295242 0
-0.00950482254873 -0.00301328401114 0
-0.00111089196918 -0.137698740809 0
0.0109943066405 -0.0612786812834 0
0.0124166454581 -0.110181715225 0
0.0122094662792 -0.014102436731 0
0.006491615081 -0.0175073640943 0
-0.0105111608582 -0.124266744581 0
0.00956939527689 -0.0004515798707 0
-0.0107086134507 -0.00127557240449 0
-0.00748309171749 -0.0462098389038 0
0.019003583425 -0.0255222930406 0
-0.0110688066127 -0.0015274304829 0
0.00976038235164 -0.00151797549469 0
0.0210419195191 -0.0486680649774 0
-0.0175287582225 -0.0638268267382 0
0.00138418550711 -0.0789264940534 0
-0.0212589549046 -0.0242259729216 0
0.0107620935123 -0.00204491249794 0
-0.0137572309935 -0.00798416931173 0
0.010874107978 -0.00106977521006 0
0.0166720177422 -0.0248607490845 0
-0.0203463816806 -0.0474238588752 0
0.00796104408622 -0.104019375935 0
-0.0118343026209 -0.100055366867 0
0.0145674493115 -0.00924121986063 0
0.00295724254037 -0.0362711478437 0
-0.0163297859509 -0.0154027872731 0
0.018721969951 -0.0607689057123 0
-0.0109948544725 -0.00141359794747 0
0.00975683143124 -0.0011104519157 0
0.00936620939316 -0.000340445118064 0
-0.01155843866 -0.00126355130897 0
-0.012275441391 -0.00279311562925 0
0.0123174623801 -0.00360702214551 0
0.0142769659501 -0.0415789394207 0
-0.00971101891472 -0.0452003666576 0
0.00513920933836 -0.13529762288 0
-0.0170712326112 -0.0367059872937 0
0.00990523278274 -0.000273041279321 0
-0.0160393659118 -0.00774073218399 0
0.00990426510102 -0.000962083745821 0
0.0088248032577 -0.000811422413171 0
-0.0114365547479 -0.00136704539293 0
-0.0119725706671 -0.00530381733914 0
0.00806515399284 -0.00176731284416 0
-0.0153380987049 -0.00575449858626 0
-0.00812585935338 -0.00749632479929 0
0.0190232362528 -0.0171752190826 0
0.0184299191528 -0.0701845817093 0
-0.0174006176216 -0.032571651732 0
-0.0154664368 -0.0939291327851 0
0.00258047744532 -0.113760610492 0
-0.00574949810847 -0.0210634135984 0
-0.0104556299749 -0.00136449758946 0
0.00751237469164 -0.000543354997068 0
0.0114469616608 -0.0132919511101 0
0.00942392219914 -0.000979649181333 0
-0.0112202532538 -0.00136576112467 0
0.0094749070626 -0.000741274767993 0
-0.00165518902518 -0.0524008576172 0
0.0189965249479 -0.018457768805 0
-0.0187971527943 -0.0148198673595 0
0.0153781044332 -0.00762959183886 0
-0.0196666344462 -0.029134327485 0
0.00916551416083 -0.0494359670319 0
-0.0116226685186 -0.065691611069 0
-0.00426227299271 -0.117155031772 0
0.0105280932122 -0.00575513867957 0
0.0094386223736 -0.000122534096729 0
-0.0110512938668 -0.00149911160102 0
0.0150118826852 -0.0113024314537 0
0.00942866640199 -0.00055344143507 0
-0.0111983772711 -0.00123893396759 0
-0.0138308911156 -0.0177794836285 0
0.0173199458288 -0.0483520422684 0
-0.01800922751 -0.0773337930372 0
0.0134267597802 -0.102005770354 0
0.00737320550253 -0.0015512271286 0
-0.0100823048361 -0.00197732835774 0
-0.00645641199007 -0.135509200703 0
-0.0112206729378 -0.00161858538544 0
0.00938563923078 -0.00157760963324 0
0.00691104535265 -0.0364716093005 0
-0.0116863772574 -0.0732887399576 0
0.0094626397983 -0.127422597197 0
-0.0123590376305 -0.00174416763656 0
-0.0135814421329 -0.00311939695485 0
0.0174128539145 -0.0799222620827 0
0.00954990910471 -0.000203086313069 0
0.0121894952871 -0.0900762229605 0
0.0124568562618 -0.00277559967081 0
0.00649410397856 -0.0743192286313 0
-0.0221254897583 -0.0326195486068 0
0.0128547124219 -0.0348127234525 0
-0.0164480479389 -0.0662348537293 0
0.0100636598704 -0.116439058528 0
0.00628911575841 -0.00972772737015 0
-0.0141168770809 -0.0727574091566 0
0.00524446578726 -0.000897616831496 0
0.00914428110553 -0.000125844039397 0
-0.00985057907669 -0.00209481892814 0
-0.00694757173763 -0.0260875623933 0
-0.0128058206129 -0.104806842668 0
0.00602614116889 -0.0220157787726 0
-0.0115659552191 -0.119941199771 0
0.00864666895199 -0.000506002692424 0
0.00968865251755 -0.000755782800133 0
-0.0108650245533 -0.00131136399022 0
-0.00890701074534 -0.00387630332311 0
0.0127437250434 -0.00436084181075 0
0.00947405764712 -0.000267272062427 0
-0.0104218951502 -0.00138557377853 0
-0.0168837800623 -0.013591621314 0
0.0204850341396 -0.0362691978037 0
-0.0211983124427 -0.0586433670858 0
0.0128854128038 -0.0863038507643 0
-0.00699736753243 -0.0952086079861 0
0.00426885111923 -0.000572468090583 0
-0.00573761059963 -0.00121482109347 0
0.00964612677748 -0.00291214680562 0
-0.00635339278599 -0.123316289656 0
-0.0116336856855 -0.01053243186 0
0.0167237695286 -0.0839329541954 0
-0.0178800108178 -0.0805846833699 0
-0.000447057390167 -0.106163486 0
-0.0179450524027 -0.0246508294247 0
-0.00442134685503 -0.000815215716574 0
0.00300944954614 -0.000503833422237 0
-0.00679285415396 -0.00192959527207 0
0.00952431814603 -0.000157797667257 0
-0.0113471103912 -0.00254665122403 0
0.0204738873645 -0.0224611995547 0
0.0200016316928 -0.0571479989668 0
-0.0105860923713 -0.111462936078 0
-0.0167249765958 -0.0080146324292 0
0.0130681578806 -0.0263448101317 0
-0.0174583744501 -0.053798898298 0
0.00811959347769 -0.116314494081 0
0.00899732839432 -0.00106915108941 0
-0.0113921614425 -0.00147649220924 0
0.00702994324152 -0.0047982412675 0
0.00982829903673 -0.0165570605715 0
0.00853203981077 -0.000551114190789 0
-0.0114336637973 -0.00133654439581 0
-0.00678699138926 -0.0150039069598 0
0.00809606850037 -0.0441589421213 0
-0.0124025095914 -0.0820135758088 0
-0.0080414705514 -0.133285129991 0
0.0105587854254 -0.122840343217 0
0.016495850662 -0.0525433522984 0
0.0127063823198 -0.00758927471052 0
0.00876534494813 -0.00173156243341 0
-0.0112140223297 -0.00191686468332 0
0.0203289880472 -0.0339362578862 0
0.00693659648177 -0.00327337121928 0
0.0116407172326 -0.00170533836622 0
0.00305674208161 -0.0142132358402 0
0.0159638216183 -0.027843671525 0
-0.00868854248565 -0.00786526787433 0
-0.0117715511542 -0.0358803609093 0
-0.0106847209896 -0.00179819098439 0
-0.0183861627164 -0.0485276629599 0
-0.0140979772201 -0.00402723743558 0
0.014615800464 -0.0177091365715 0
-0.0084776216155 -0.00399018290634 0
-0.00471601265448 -0.00155940325245 0
0.00324330776953 -0.00116070347487 0
0.00980323859902 -0.00133062591338 0
-0.0110358358604 -0.00148165485152 0
0.00997049725512 -0.000521907291239 0
0.00688672794929 -0.0157667002313 0
-0.00914600312212 -0.0130438040783 0
-0.011137947265 -0.00157943581686 0
0.00956139853936 -0.00163218881904 0
-0.00973898622883 -0.00638137305591 0
0.00765846537617 -0.000569724067655 0
-0.012676013678 -0.00393013750099 0
-4.69404706705e-05 -0.0187277556901 0
0.00974703933656 -0.00679947636241 0
-0.0198499724213 -0.0172865357102 0
-0.0123658554074 -0.00365392989668 0
0.0216794680583 -0.0362037543901 0
-0.00314304202482 -0.077961438932 0
0.0050595931691 -0.0126590464359 0
-0.00404697621735 -0.141550735833 0
0.0165958922844 -0.073334853982 0
0.00917103120887 -0.000528248102743 0
-0.0116123630291 -0.00126121034148 0
0.00638790504388 -0.00208564097755 0
0.0162603764747 -0.0651527651963 0
0.000507072277967 -0.143466819925 0
-0.020247681042 -0.0538095732053 0
-0.0181480967221 -0.074277093821 0
0.000177608239805 -0.097437628775 0
-0.0196301451749 -0.0250106075268 0
0.0210326326553 -0.0545718586788 0
0.00826410409243 -0.0700580447145 0
0.0113872175193 -0.111175356856 0
0.00818895582616 -0.00120924486648 0
0.00957064838918 -0.00100464756759 0
-0.0110764929667 -0.00136764253414 0
-0.00679509223666 -0.0375530271606 0
-0.00877713145687 -0.0548587789727 0
0.00343471251081 -0.139566661915 0
0.00667548733663 -0.136442841852 0
-0.00971263345458 -0.0013663756101 0
0.00696831887556 -0.000814532093702 0
0.0141284187536 -0.00547291796991 0
0.00941618876474 -0.00127670805566 0
-0.0112189252424 -0.00149438553847 0
0.0102918931774 -0.000492457585045 0
0.00329428946843 -0.028348388798 0
-0.0114385996264 -0.117634210261 0
-0.0221544201847 -0.0401510074292 0
0.010079743328 -0.0715512286571 0
0.0080978973756 -0.00125444421991 0
0.0160611394881 -0.085556610556 0
-0.00794879727316 -0.00614949935515 0
-0.011063485984 -0.001542435098 0
0.00984304233576 -0.0016435940515 0
-0.0137523981899 -0.0987773759104 0
0.00535332536286 -0.110672875476 0
-0.0188962677899 -0.0403962822869 0
-0.0118613798113 -0.00146610149826 0
0.0100542866624 -0.000606842462421 0
0.00945911246612 -0.000193059441984 0
0.00951241388993 -0.000538689074584 0
-0.0109771294362 -0.00124337868165 0
0.00926982901527 -0.000667762151662 0
0.00744852482135 -0.00236387448315 0
-0.00688420164452 -0.00902566348225 0
0.0155838811193 -0.0079108498604 0
0.0184790581535 -0.0220500806574 0
-0.021798648879 -0.0401400119284 0
-0.0129105430144 -0.0848096644594 0
0.00713351827289 -0.0919037003593 0
-0.0150303278348 -0.00721356811775 0
-0.00461022118792 -0.1039055404 0
-0.0181350380217 -0.0128126861651 0
0.0200397744683 -0.0447484394806 0
-0.0165520006709 -0.0171677893835 0
-0.0198208077724 -0.0698889966782 0
0.00944292145976 -0.000214992945721 0
0.0213218146204 -0.032358183901 0
-0.0113065749656 -0.00131403136847 0
-0.0216786653565 -0.050642216507 0
-0.00718345758967 -0.0815118241476 0
0.0130734017885 -0.0749017836639 0
0.0104915560087 -0.0114365918145 0
0.0126127204671 -0.0101826381199 0
-0.0136525434657 -0.0291763700237 0
-0.0151330489911 -0.0980926991201 0
0.00136020777289 -0.12314235726 0
0.0100874940913 -0.0859300756417 0
0.0110235857749 -0.0991352697767 0
0.0187892749794 -0.0307418083019 0
-0.0211034791766 -0.0542769620103 0
0.0105457177043 -0.0970819723086 0
-0.0094097297965 -0.0992430296316 0
0.00921315885337 -0.000144724947169 0
-0.00977410027994 -0.00185340867411 0
-0.0105090953101 -0.0044818103653 0
0.0160481445572 -0.00802926844399 0
0.0144671345263 -0.0533794618524 0
0.0128989894682 -0.107587255233 0
0.0115874633123 -0.00310542244766 0
0.00893288305031 -0.000200373627 0
-0.0101410796782 -0.0651536164289 0
0.00820300442178 -0.132471862869 0
0.00918452030522 -0.000304442708878 0
-0.0121992583036 -0.00156684364501 0
-0.000849490428188 -0.0665599284976 0
-0.0112735890541 -0.00171980268691 0
0.00920504733214 -0.00167036272214 0
-0.0131651279512 -0.00376391083244 0
-0.0204341032933 -0.0190753750128 0
-0.009254687832 -0.0025299735682 0
-0.0151645570103 -0.0106379464684 0
0.00946673546373 -7.59686929626e-05 0
-0.0111850314706 -0.0017792203591 0
0.0117199852532 -0.00576712353441 0
-0.00430089041793 -0.000751738828304 0
0.0029339734357 -0.000365439437102 0
-0.0123630911601 -0.00209614711847 0
-0.00250589969323 -0.0163710509554 0
0.00924804817407 -0.00799511033768 0