# vtk DataFile Version 2.0
Generated with Solid Solver
ASCII
DATASET UNSTRUCTURED_GRID
POINTS 1163 float 
0.0 3.5 0.0
2.2 3.5 0.0
2.2 4.0 0.0
0.0 4.0 0.0
0.0687499999999 3.5 0.0
0.1375 3.5 0.0
0.20625 3.5 0.0
0.275 3.5 0.0
0.343749999999 3.5 0.0
0.412499999999 3.5 0.0
0.481249999999 3.5 0.0
0.549999999999 3.5 0.0
0.618749999998 3.5 0.0
0.687499999998 3.5 0.0
0.756249999998 3.5 0.0
0.824999999998 3.5 0.0
0.893749999998 3.5 0.0
0.962499999997 3.5 0.0
1.03125 3.5 0.0
1.1 3.5 0.0
1.16875 3.5 0.0
1.2375 3.5 0.0
1.30625 3.5 0.0
1.375 3.5 0.0
1.44375 3.5 0.0
1.5125 3.5 0.0
1.58125 3.5 0.0
1.65 3.5 0.0
1.71875 3.5 0.0
1.7875 3.5 0.0
1.85625 3.5 0.0
1.925 3.5 0.0
1.99375 3.5 0.0
2.0625 3.5 0.0
2.13125 3.5 0.0
2.2 3.56430812579 0.0
2.2 3.6227083524 0.0
2.2 3.67574343203 0.0
2.2 3.72390623714 0.0
2.2 3.76764438299 0.0
2.2 3.80736436348 0.0
2.2 3.84343531161 0.0
2.2 3.87619247056 0.0
2.2 3.90594026646 0.0
2.2 3.93295517223 0.0
2.2 3.9574882542 0.0
2.2 3.97976750927 0.0
2.18000003888 4.0 0.0
2.15999995974 4.0 0.0
2.13999995594 4.0 0.0
2.12000003893 4.0 0.0
2.0999999813 4.0 0.0
2.07999993507 4.0 0.0
2.06000001965 4.0 0.0
2.04000002354 4.0 0.0
2.01999993997 4.0 0.0
1.99999999426 4.0 0.0
1.98000004623 4.0 0.0
1.95999996625 4.0 0.0
1.93999996787 4.0 0.0
1.92000005069 4.0 0.0
1.90000001292 4.0 0.0
1.87999994967 4.0 0.0
1.86000003245 4.0 0.0
1.84000003166 4.0 0.0
1.81999995194 4.0 0.0
1.80000002065 4.0 0.0
1.78000005962 4.0 0.0
1.75999997703 4.0 0.0
1.73999998149 4.0 0.0
1.72000006236 4.0 0.0
1.70000000651 4.0 0.0
1.67999995967 4.0 0.0
1.66000004242 4.0 0.0
1.64000004304 4.0 0.0
1.61999996152 4.0 0.0
1.6000000096 4.0 0.0
1.58000006667 4.0 0.0
1.55999998704 4.0 0.0
1.53999998381 4.0 0.0
1.52000006764 4.0 0.0
1.5000000299 4.0 0.0
1.47999996242 4.0 0.0
1.46000004337 4.0 0.0
1.4400000454 4.0 0.0
1.41999996386 4.0 0.0
1.40000002834 4.0 0.0
1.38000006734 4.0 0.0
1.35999998576 4.0 0.0
1.33999998537 4.0 0.0
1.32000006658 4.0 0.0
1.30000001585 4.0 0.0
1.27999996279 4.0 0.0
1.26000004759 4.0 0.0
1.24000004493 4.0 0.0
1.2199999616 4.0 0.0
1.20000000906 4.0 0.0
1.18000006792 4.0 0.0
1.15999998616 4.0 0.0
1.13999999119 4.0 0.0
1.12000007157 4.0 0.0
1.1 4.0 0.0
1.07999992843 4.0 0.0
1.06000000881 4.0 0.0
1.04000001384 4.0 0.0
1.01999993209 4.0 0.0
0.999999990948 4.0 0.0
0.98000003841 4.0 0.0
0.959999955072 4.0 0.0
0.939999952416 4.0 0.0
0.920000037214 4.0 0.0
0.899999984154 4.0 0.0
0.879999933427 4.0 0.0
0.860000014636 4.0 0.0
0.840000014246 4.0 0.0
0.819999932662 4.0 0.0
0.79999997166 4.0 0.0
0.780000036145 4.0 0.0
0.759999954604 4.0 0.0
0.73999995663 4.0 0.0
0.72000003758 4.0 0.0
0.699999970103 4.0 0.0
0.679999932361 4.0 0.0
0.660000016189 4.0 0.0
0.640000012962 4.0 0.0
0.61999993333 4.0 0.0
0.599999990406 4.0 0.0
0.58000003848 4.0 0.0
0.559999956964 4.0 0.0
0.539999957581 4.0 0.0
0.520000040329 4.0 0.0
0.499999993489 4.0 0.0
0.479999937647 4.0 0.0
0.460000018512 4.0 0.0
0.440000022972 4.0 0.0
0.419999940378 4.0 0.0
0.399999979352 4.0 0.0
0.380000048063 4.0 0.0
0.359999968347 4.0 0.0
0.339999967553 4.0 0.0
0.320000050328 4.0 0.0
0.299999987077 4.0 0.0
0.279999949312 4.0 0.0
0.260000032129 4.0 0.0
0.240000033752 4.0 0.0
0.219999953776 4.0 0.0
0.200000005737 4.0 0.0
0.180000060031 4.0 0.0
0.159999976465 4.0 0.0
0.139999980354 4.0 0.0
0.120000064926 4.0 0.0
0.100000018697 4.0 0.0
0.0799999610675 4.0 0.0
0.0600000440571 4.0 0.0
0.0400000402596 4.0 0.0
0.0199999611169 4.0 0.0
0.0 3.97976750927 0.0
0.0 3.9574882542 0.0
0.0 3.93295517223 0.0
0.0 3.90594026646 0.0
0.0 3.87619247056 0.0
0.0 3.84343531161 0.0
0.0 3.80736436348 0.0
0.0 3.76764438299 0.0
0.0 3.72390623714 0.0
0.0 3.67574343203 0.0
0.0 3.6227083524 0.0
0.0 3.56430812579 0.0
0.249757963562 3.75212589829 0.0
1.94999996706 3.74954522137 0.0
0.488710285893 3.75947702441 0.0
0.726520490699 3.7655965719 0.0
0.967283134849 3.7597072979 0.0
1.20619032017 3.75831098673 0.0
1.45842774915 3.76733088374 0.0
1.69012076678 3.7622332834 0.0
0.130754044069 3.86878249167 0.0
2.06924595593 3.86878249167 0.0
1.8299999918 3.84622455633 0.0
1.56816462369 3.85034872999 0.0
0.369913859351 3.84868157925 0.0
0.608733620231 3.84706187144 0.0
1.33069778866 3.84790908234 0.0
0.84323446252 3.84762979148 0.0
1.08873170817 3.84705870913 0.0
0.250539365135 3.87785524304 0.0
1.94967747948 3.87849609822 0.0
1.73218750075 3.8916046151 0.0
0.468661874066 3.89189322974 0.0
1.47574192429 3.89639134117 0.0
0.704258110321 3.8963912684 0.0
1.18331258449 3.8976320365 0.0
0.949999953744 3.89208018478 0.0
1.64795374468 3.91749779939 0.0
0.548928463645 3.91905583847 0.0
1.38619509199 3.91928594438 0.0
0.788926872841 3.91906062101 0.0
1.27071160784 3.91777932845 0.0
1.02999997296 3.91685174433 0.0
1.81733541416 3.69950870754 0.0
1.86999999106 3.91823503401 0.0
0.071252620538 3.93011431841 0.0
2.12874737946 3.93011431841 0.0
2.07400690796 3.74293885365 0.0
0.125993092043 3.74293885365 0.0
0.32995676804 3.92118147353 0.0
2.00999996712 3.92542383197 0.0
0.190000032884 3.92542383197 0.0
1.56698738743 3.72218882919 0.0
1.33000000474 3.72531695685 0.0
0.848014510843 3.71986098938 0.0
1.09024665585 3.72285801424 0.0
0.610276609989 3.72290563624 0.0
1.54999998543 3.92414142844 0.0
0.629999973146 3.92414137652 0.0
0.869999974031 3.92414141814 0.0
1.11000003579 3.92414141267 0.0
1.79030638642 3.92649353654 0.0
0.370434802927 3.72513294336 0.0
0.410903135411 3.92892991244 0.0
1.33000002597 3.93737911571 0.0
0.129927648482 3.94112154503 0.0
2.07007235152 3.94112154503 0.0
1.93000000928 3.93875927586 0.0
0.26999999072 3.93875927586 0.0
1.40966706061 3.83880068991 0.0
0.770332962441 3.83880062149 0.0
1.24904900022 3.84293377683 0.0
1.01033287484 3.83880060723 0.0
0.530342681434 3.83880307444 0.0
0.189895273961 3.63486992823 0.0
2.00989835291 3.62845703161 0.0
0.998888153878 3.61665036233 0.0
1.47894673873 3.61675180774 0.0
0.51733910646 3.62937665489 0.0
0.705112628302 3.618743723 0.0
1.66672137035 3.63168728155 0.0
1.18508242495 3.61871739348 0.0
1.71000003443 3.94408608591 0.0
0.489999965568 3.94463856597 0.0
1.44983363802 3.94422347836 0.0
0.729999997105 3.94465012565 0.0
1.21016639734 3.94422345842 0.0
0.928621800545 3.94440037102 0.0
2.00626203014 3.81543543551 0.0
0.193627962274 3.81528928332 0.0
1.66628164144 3.83559795895 0.0
1.75661718781 3.81065958113 0.0
1.61143779865 3.94859227761 0.0
0.991673865748 3.95161238438 0.0
0.0604617941233 3.86281264864 0.0
2.13953820588 3.86281264865 0.0
0.300965570716 3.8114148258 0.0
0.2970894797 3.66361086085 0.0
0.398842167194 3.60449226805 0.0
1.51000004877 3.95218393067 0.0
1.90135619383 3.81213273629 0.0
0.669405272842 3.95495208979 0.0
1.07142780558 3.94866325309 0.0
0.592085094025 3.94901139323 0.0
0.831051660929 3.94633985879 0.0
1.14940528892 3.9549521224 0.0
0.44409344258 3.82719938178 0.0
1.49646539728 3.82376850413 0.0
0.683434082651 3.82631713605 0.0
0.92337834777 3.8234861632 0.0
1.16343437877 3.82631615351 0.0
1.90749084149 3.65350700271 0.0
1.8278758005 3.95083911942 0.0
0.37243073327 3.95235211027 0.0
1.29345662549 3.60569899261 0.0
0.813407949226 3.60572380122 0.0
1.29317153636 3.96216077293 0.0
1.367704599 3.96055764734 0.0
1.97071235041 3.96038324024 0.0
0.22928764959 3.96038324024 0.0
2.10610581798 3.66047411138 0.0
0.0938941820177 3.66047411138 0.0
1.67000000105 3.95862953468 0.0
1.74869816704 3.96079301687 0.0
0.531976761939 3.96138655466 0.0
0.451361042387 3.96112774725 0.0
0.771976832233 3.96138887156 0.0
1.88843481911 3.95881554986 0.0
1.61277513709 3.78538823015 0.0
2.13311214501 3.79435403671 0.0
0.0668878549946 3.79435403671 0.0
1.76678797151 3.60286552601 0.0
0.311702446283 3.9611157379 0.0
1.02877762737 3.96159282031 0.0
1.40830122607 3.96143175203 0.0
1.25214210333 3.957355862 0.0
1.59476493393 3.9048774062 0.0
1.56950979124 3.96148017208 0.0
0.890017020275 3.96125792969 0.0
2.03089110475 3.96040268709 0.0
0.169108895255 3.96040268709 0.0
0.939722125942 3.68539157065 0.0
1.41686981874 3.69192854313 0.0
0.0426348006718 3.96101756902 0.0
2.15736519933 3.96101756902 0.0
1.36077308019 3.79177204211 0.0
0.817982383499 3.78962669257 0.0
1.05834720932 3.78780184893 0.0
0.578349529346 3.78781530011 0.0
1.77992711518 3.87652731382 0.0
0.417982153133 3.87594990465 0.0
1.84363633012 3.77741329286 0.0
1.52244994479 3.87704541475 0.0
0.657426528912 3.87734838249 0.0
1.13742651778 3.87734834025 0.0
0.898116026439 3.8800466833 0.0
1.56984259435 3.64465823131 0.0
1.08983016076 3.6446495206 0.0
0.609942357805 3.64483976081 0.0
1.29451769374 3.79627773068 0.0
0.0893439668432 3.96574839433 0.0
2.11065603316 3.96574839433 0.0
2.01422398896 3.86980625824 0.0
0.185776011038 3.86980625824 0.0
0.305957237756 3.87340573745 0.0
1.72977480551 3.68665973332 0.0
1.25418096296 3.69351129461 0.0
0.629999973146 3.96272981435 0.0
1.11000003579 3.96272983221 0.0
0.772975283819 3.69297597031 0.0
1.89089074715 3.86951346173 0.0
0.445448577516 3.69456159386 0.0
1.82621986864 3.89678318705 0.0
2.07135424223 3.81165410377 0.0
0.128645757768 3.81165410377 0.0
0.373320289473 3.89968791662 0.0
1.79000004014 3.96541718891 0.0
0.383302070088 3.78976392323 0.0
0.409457623385 3.96502881851 0.0
1.55531527123 3.78787141386 0.0
1.34861332978 3.89383287415 0.0
0.593245985735 3.89483466551 0.0
0.833245353375 3.89479604398 0.0
1.0732444554 3.8948349405 0.0
0.911896623122 3.59194725763 0.0
0.187580554011 3.70699710313 0.0
2.01241944599 3.70699710313 0.0
1.39201907571 3.59233063354 0.0
2.09635520798 3.90516200201 0.0
0.103644792024 3.90516200201 0.0
1.89086147526 3.72621461413 0.0
1.02102684616 3.70044819701 0.0
1.49813234221 3.70194667869 0.0
0.53965669049 3.70593418829 0.0
1.63719578665 3.69772473547 0.0
0.685447658936 3.70127585046 0.0
1.16541741817 3.70128744764 0.0
0.901649266036 3.76287226775 0.0
0.992351690321 3.90662993531 0.0
1.69131894868 3.90657323657 0.0
1.9699561555 3.91599371502 0.0
0.230043844497 3.91599371502 0.0
1.61980840676 3.85005402918 0.0
2.04685187594 3.90639759008 0.0
0.153148124058 3.90639759008 0.0
0.512139828486 3.90538520837 0.0
1.43057458921 3.90702644399 0.0
0.749149996349 3.90689574876 0.0
[...]
POINT_DATA 1163
VECTORS Displacement float
0.0 0.0 0
0.0 0.0 0
0.00091702925851 -0.000244004470424 0
-0.000671921912595 0.000700092305768 0
0.0 0.0 0
0.0 0.0 0
0.0 0.0 0
0.0 0.0 0
0.0 0.0 0
0.0 0.0 0
0.0 0.0 0
0.0 0.0 0
0.0 0.0 0
0.0 0.0 0
0.0 0.0 0
0.0 0.0 0
0.0 0.0 0
0.0 0.0 0
0.0 0.0 0
0.0 0.0 0
0.0 0.0 0
0.0 0.0 0
0.0 0.0 0
0.0 0.0 0
0.0 0.0 0
0.0 0.0 0
0.0 0.0 0
0.0 0.0 0
0.0 0.0 0
0.0 0.0 0
0.0 0.0 0
0.0 0.0 0
0.0 0.0 0
0.0 0.0 0
0.0 0.0 0
0.000147299368917 -0.000136051495356 0
0.000274158030068 -0.000197732848783 0
0.000389248239475 -0.000228970586086 0
0.000485595533058 -0.000243716691939 0
0.000565958002721 -0.000248770205142 0
0.000634078847557 -0.000249256775919 0
0.000691218676294 -0.000248408980404 0
0.000741110584213 -0.000246915493215 0
0.000784391609346 -0.000245518795278 0
0.000822817855136 -0.000244654663913 0
0.000857282189824 -0.000244201643313 0
0.00088854602914 -0.000244013394042 0
0.000917021352792 -0.000215790589544 0
0.000916901991292 -0.000187457136283 0
0.000916607222427 -0.000159154155867 0
0.00091608319057 -0.000130995409394 0
0.000915387330474 -0.00010316103016 0
0.000914597641759 -7.57292146943e-05 0
0.000913659919949 -4.87705703643e-05 0
0.00091275330817 -2.2323834052e-05 0
0.000911753410653 3.58557379806e-06 0
0.00091082280561 2.89942246103e-05 0
0.000909742389048 5.39141671634e-05 0
0.000908587913625 7.82425328319e-05 0
0.000907374021711 0.000102030476591 0
0.000905848978054 0.000125389729737 0
0.000904047461873 0.000148175962542 0
0.000901554541576 0.000170532792935 0
0.000898551382602 0.000192233694893 0
0.000894372283158 0.000213489927132 0
0.000889200846437 0.000233779901039 0
0.000882219238798 0.000253179682239 0
0.000873425863213 0.000271411965541 0
0.000863030978527 0.000287728192271 0
0.000849706695161 0.000303517152534 0
0.000833563691364 0.000316157961348 0
0.00081344823821 0.000327389207665 0
0.000789869977544 0.000334655392644 0
0.000760545195456 0.000339214349106 0
0.000727319716771 0.000338303560102 0
0.000687376453898 0.000332392530653 0
0.000642399377741 0.000319833716071 0
0.000589952617357 0.000298593285988 0
0.000528306054001 0.000271886689271 0
0.000459418271117 0.000233064245647 0
0.00037988501685 0.000182369907168 0
0.000290875274482 0.00011697967045 0
0.000189520831006 3.66632634623e-05 0
7.49530164721e-05 -6.45788622014e-05 0
-5.35022206261e-05 -0.000186078673004 0
-0.000191389499224 -0.000334472650449 0
-0.000347977036868 -0.000508902356299 0
-0.000515694760865 -0.000716415657244 0
-0.000700278512022 -0.000958408601689 0
-0.000900883275495 -0.0012447830105 0
-0.00112938579492 -0.00157355508149 0
-0.00136578880476 -0.00195729381257 0
-0.001623579428 -0.00240348272816 0
-0.00189377733721 -0.00292193825974 0
-0.00218959061762 -0.00350591943832 0
-0.00249329038868 -0.00418295064317 0
-0.00283016021485 -0.00495127648112 0
-0.00317770029991 -0.00583477170212 0
-0.00354319538126 -0.00685414457701 0
-0.00392649853052 -0.00802305075945 0
-0.00432109279397 -0.00936689868947 0
-0.00469452802556 -0.0109108340241 0
-0.00511156625426 -0.0127240725825 0
-0.00549788932033 -0.0148712223141 0
-0.00575821671994 -0.0174271701746 0
-0.00593580978821 -0.0206556942516 0
-0.00560746951043 -0.0251674604961 0
-0.00510734937263 -0.029615066251 0
-0.00447229762268 -0.0335582686447 0
-0.00381418720518 -0.0370160278694 0
-0.00315219245996 -0.0399902689114 0
-0.00257873228651 -0.0425138690626 0
-0.00201858956308 -0.04457617456 0
-0.00153413530987 -0.0461825026726 0
-0.00106551056877 -0.0473291734905 0
-0.00065079770441 -0.0480143976433 0
-0.000303693661526 -0.0482336168097 0
9.86545217146e-05 -0.0480000310469 0
0.000539098521849 -0.0472998368278 0
0.000988036845902 -0.0461407255491 0
0.00150951773398 -0.0445284367446 0
0.00204981042148 -0.0424493846653 0
0.00263964200723 -0.0399177376301 0
0.0032851969827 -0.0369163280891 0
0.0039493944866 -0.033456147546 0
0.00456597343473 -0.0295033208534 0
0.00515874165863 -0.0250575500296 0
0.00527589487789 -0.0205456846809 0
0.00515907274107 -0.0174200492362 0
0.00487022878152 -0.0149158567576 0
0.00448339458405 -0.0127776591428 0
0.00410834050985 -0.0109817846656 0
0.00368023951423 -0.00943998729641 0
0.00329518416775 -0.00812445564482 0
0.0029076431296 -0.00698407691269 0
0.00255727631128 -0.00598434794506 0
0.00220257477706 -0.0051129067155 0
0.00185500687467 -0.00435916408523 0
0.00154529951504 -0.00369920590223 0
0.00125133909457 -0.00313222723642 0
0.000978831339249 -0.00263399566826 0
0.000723671654539 -0.00220673839537 0
0.0004992142059 -0.0018329578885 0
0.000287899355792 -0.00151459241422 0
0.000104733282355 -0.00123554607909 0
-6.17642822208e-05 -0.000996463297756 0
-0.000208479535672 -0.000792031350743 0
-0.000327732380425 -0.000608535258464 0
-0.00043119024571 -0.000449434035935 0
-0.000512612091853 -0.000299764754266 0
-0.000576507671727 -0.000165110967358 0
-0.00062144753059 -3.05862246856e-05 0
-0.000650670458334 0.000101833149294 0
-0.000666657658532 0.00023934333958 0
-0.000672745456436 0.000384818929369 0
-0.000672626930494 0.000538904520086 0
-0.000835809184406 0.000700795890112 0
-0.00102391492653 0.000699225924797 0
-0.00124326307933 0.000687416117488 0
-0.00149579308952 0.000657575811883 0
-0.00177241478098 0.000587199554362 0
-0.00204726336414 0.000470731076862 0
-0.00231264911487 0.000301441525316 0
-0.00249518297977 6.9859229405e-05 0
-0.00254426858104 -0.000198054176737 0
-0.0023912285652 -0.000484276595239 0
-0.00190612424869 -0.000679879730801 0
-0.00112003600904 -0.000646804817805 0
-0.00330969570231 -0.0011733314567 0
0.000583499549491 5.27329327123e-05 0
-0.00511672566598 -0.00765086113653 0
-0.00247336291254 -0.0199031550731 0
0.00421233771778 -0.0154091324274 0
0.00389940328168 -0.00391069227302 0
0.00180155165101 -0.000132365814824 0
0.000949380083207 0.000224132773415 0
-0.00192105675465 -0.00020677449192 0
0.000733904886595 -6.11335723887e-05 0
0.0007884622245 0.000202985746823 0
0.00107125873345 0.000295667713691 0
-0.00298778946127 -0.00371302002989 0
-0.00462928001745 -0.0191271579911 0
0.00179712471016 -0.00124244004273 0
0.00111926369698 -0.029096173188 0
0.00383873400657 -0.0107823210375 0
-0.00191676187351 -0.00121889629875 0
0.000767216087609 8.5118913287e-05 0
0.000849009777612 0.000310801305642 0
-0.0025319599195 -0.00836354844963 0
0.000901142307891 9.78914770159e-05 0
-0.0024617920281 -0.0316855769338 0
0.00136213543553 -0.00543688457152 0
0.00293842285626 -0.0263179678056 0
0.000829894869628 0.00036109685776 0
-0.00219397772932 -0.0154708694984 0
0.000598129602092 -0.000518319248414 0
-0.000456963815662 -0.0380547928637 0
0.000497732872132 -0.00244074349069 0
0.0020663895389 -0.017951678272 0
0.000627627347197 0.000105079000226 0
0.000824264146488 0.000180182585881 0
-0.00127086224258 0.000162147331033 0
0.000819101451435 -0.000142927808433 0
0.000524296767725 -6.53926474889e-05 0
-0.00277362897569 -0.000298306501018 0
-0.00102154799488 -0.00267846635225 0
0.00081653809845 1.61180738306e-05 0
-0.00118601869295 -0.000602401229966 0
0.00132847684188 0.000101411057272 0
0.0028738359948 -0.0012368747064 0
0.00127133278061 -0.0163380372273 0
0.00472471586674 -0.0075794216874 0
-0.00462432070649 -0.0119749714448 0
0.000760752423811 0.000303755413616 0
-0.00246430324774 -0.0262575806531 0
0.000873206659012 -0.0365746020794 0
0.00070316831497 -0.00989920280692 0
0.00083730854562 0.000265293679891 0
-0.00428139554415 -0.00310678077418 0
-0.000727709206483 -0.00536397491029 0
0.000163936286462 -0.00125837726231 0
-0.0010965598324 -0.000189886275022 0
0.000834957537849 -6.18788164813e-05 0
0.00083822468363 0.000113584051238 0
-0.000759015460921 -0.00152661658225 0
0.0015562191771 -0.000344959121471 0
-0.00114822646772 -0.0284002794264 0
0.0023810726715 -0.00300126245426 0
0.0043388248985 -0.0170278917695 0
-0.00464633930083 -0.0120985496207 0
-0.00248247143095 -0.00050993417191 0
0.000298624306635 -1.14864402489e-05 0
0.00304918182682 -0.00583115830899 0
0.00138360987098 -0.00020765389299 0
-0.00391013536939 -0.00465673116826 0
-0.00196044799172 -0.00761433466383 0
0.000757009062375 4.55001552008e-05 0
0.00327696623353 -0.00248823160653 0
0.000823928151976 0.000333574177319 0
-9.19290883061e-05 -0.0100137437592 0
0.000451875379757 -4.50294208206e-05 0
-0.000850654486329 -0.0389046489651 0
-0.000455396035905 -0.00437263007806 0
0.000715710894889 -0.0334055495898 0
0.000664779821005 1.2448545394e-05 0
-0.00259084219057 -0.000643030368941 0
0.00095510569857 0.000312185822728 0
0.0008421107741 0.000243684129824 0
0.000744457120063 0.000354799906667 0
0.000251193080242 -0.0247383827054 0
-0.0019378545792 0.000150188476449 0
0.000721593052611 -0.000157633510803 0
-0.00315264219528 -0.00199099154103 0
-0.00342494014217 -0.00142775571373 0
-0.00318462244409 -0.00203307422178 0
0.000553715955344 0.000203554309743 0
0.000708425645293 0.000119022443338 0
-0.000644698657263 -0.0341007363684 0
-0.000493183954892 -0.0134438153607 0
-0.000867850733682 -0.021936183387 0
-6.16795070273e-06 -0.0410339224711 0
-0.00114018510867 -0.00728787691757 0
-0.00408984980549 -0.00655329645802 0
0.00136514409278 0.000114369151357 0
-0.00367256443938 -0.0234689533599 0
0.00338128327693 -0.0228260063009 0
0.00352596347128 -0.0060892909141 0
0.000422915484007 3.702843722e-05 0
0.000850447946704 0.000228347935955 0
6.87786039014e-05 -0.00393164171101 0
0.00239792074677 -0.00111828836459 0
0.000155056174726 -0.00718125435494 0
-0.000563290913207 -0.00198638097045 0
-7.28922279781e-05 -0.000768719750812 0
0.000861456083218 6.55553190841e-05 0
-0.000544986301523 -0.00101822846377 0
0.000349752123341 -8.38237458079e-05 0
-0.00241132751978 -0.000266045063066 0
0.000789777474853 0.000352359924423 0
0.000838332742459 0.000303631067914 0
0.000926720473001 -0.0138715177671 0
0.000889458500271 -0.00744453248172 0
-0.000316255899066 -0.0430055044949 0
0.000859782070991 0.000162098483769 0
0.00113548017447 0.000248967985434 0
0.000612172291024 -0.0001448908423 0
-0.00248467800574 -2.10630045997e-05 0
0.000442697603828 2.55058548473e-05 0
-4.52315403024e-05 -0.00232183092487 0
-0.00104522413728 -0.018973078768 0
0.000121995973288 -0.000352726292993 0
-0.000703338376588 -0.0029858286928 0
0.000855583594735 0.000350412878763 0
0.000646476095533 0.000317098643576 0
-0.000190747160742 -0.0393203677963 0
0.00086099670151 -1.01077534845e-05 0
-0.000788768859946 -0.000465324052346 0
0.00321972669288 -0.0114316396472 0
0.00216143344287 -0.000447633193189 0
-0.000989854609677 0.000364272217288 0
0.000862240616322 -0.000183656109114 0
0.00227580420745 -0.00087098648057 0
0.000372116407109 -0.023362870804 0
0.00479923966401 -0.0113372538586 0
-0.0051834320547 -0.0137094167412 0
0.00083054265423 0.000263354209993 0
-0.00264510362157 -0.0055864953942 0
0.000716213300213 0.000150600016789 0
0.00100475028575 0.000237432839731 0
-0.00366837744975 -0.0257947328962 0
0.00245439522684 -0.0078375495854 0
0.00227808078246 -0.0298537834776 0
0.00113547108568 -1.34319213608e-05 0
0.00391863664974 -0.00502731073817 0
-0.0036636548957 -0.00753599538438 0
0.00273147000039 -0.00187391464613 0
-0.00091256827883 5.2689343318e-05 0
0.000868480348363 -0.000117653514847 0
0.000742398122937 8.26570809629e-06 0
-0.0019537636887 -0.000562303134293 0
-0.00213258089324 -0.00211668184497 0
0.00076256783834 0.000116513933002 0
0.00354009616379 -0.00226718244105 0
-1.25570279628e-05 -0.0289468422057 0
-0.00170839503292 -0.00998776821454 0
-0.000912432084036 -0.0142344035918 0
0.000775815573991 0.00014857287631 0
-0.0047198259861 -0.00463762707519 0
0.000818634296298 0.000223984356095 0
0.000645310347832 -6.37439995039e-05 0
-0.00246307864526 -0.000242165332615 0
-0.00167896874406 -0.00389995207214 0
0.000853818865128 0.000266118889218 0
-0.00406195637674 -0.00392679417651 0
0.000811803979595 -0.00535980210712 0
0.00130436293167 0.000192245628168 0
0.000986749150924 -0.000964709670719 0
-0.00360779912864 -0.0199837036629 0
0.00056041910634 -0.0347478197995 0
0.00251379535631 -0.0128213108297 0
0.0016891968332 -0.00561241396956 0
-0.00298082018583 -0.000596323839725 0
0.00047048063376 -7.24928261285e-06 0
0.00159442642789 -0.000460146667743 0
0.000784628578871 -9.74770776699e-05 0
-0.00151895389596 -3.61230743073e-05 0
0.000589687199919 8.32927882568e-05 0
0.0044192628331 -0.00949379404404 0
0.00165288921774 -8.2383723361e-05 0
-0.00495010675349 -0.00823401227646 0
0.00103831320636 0.000122516742781 0
-0.00317571691825 -0.0132778950017 0
0.00427161992832 -0.00442152093186 0
0.00288402284182 -0.0186779453376 0
0.00269225970567 -0.0223051199287 0
0.000848369615563 0.000340653558918 0
0.00080851604872 6.49624709095e-05 0
-0.00126935030219 -0.000985334795461 0
0.000992871641099 0.000327910240973 0
0.000788791757061 -3.14870324616e-05 0
-0.00147919132746 -0.000330207293894 0
-0.00242135953154 -0.0116939292032 0
0.000795296880471 -0.000145639375719 0
-0.00134691512307 -0.0355350411175 0
0.000743605379085 -0.00367744895414 0
0.000487099469486 -0.00013989840949 0
-0.00265069073853 -0.000173749646524 0
-0.000785147191445 -0.0313683838109 0
-0.00156503736334 0.0003269110209 0
0.000776860086367 -0.000186234705332 0
0.000366990737393 7.44053105637e-05 0
-4.46987893393e-05 -0.0390865128122 0
-0.00155728304343 -0.0055972542257 0
-0.00265835085456 -0.00116815299559 0
-0.00375543890513 -0.00210496184294 0
0.00158246383851 -0.00206875546435 0
0.000701450599719 7.08367378763e-05 0
-0.000384641675073 -0.00130246807474 0
0.000788486623863 0.000179975046334 0
0.00452973736013 -0.00772509603579 0
-0.00455184712786 -0.0168987123412 0
0.000639421477283 0.000120871683654 0
-0.00164728598722 -0.0347336187626 0
8.96593929224e-05 -0.0057426271382 0
0.000747944754507 0.000353959581303 0
0.00209214373728 -0.0229841129214 0
0.000283299570974 1.69309811129e-05 0
0.000866524823462 0.000114220843436 0
-0.000242646899955 -0.00157124223187 0
0.00114650055383 -0.0173007630151 0
-0.000259543756224 -0.0440787481453 0
0.000571573560855 0.000271106342927 0
-0.00030794513171 -0.0419401147042 0
0.000867367894783 0.000190715131187 0
0.000867979741984 -6.15906804923e-05 0
-0.000841175986895 -0.000203769900817 0
0.000350405012602 -0.00294758765698 0
0.000882960154902 0.000292667983225 0
0.000870459393006 3.16931890968e-05 0
-0.000568936366515 -0.000750351631476 0
-0.00408756772282 -0.00885558456606 0
0.00134063032322 -2.16138104842e-05 0
-0.0025740397769 -0.0274901153765 0
0.00285723334777 -0.00465790075066 0
0.00391685497092 -0.0216239076154 0
0.000229244123537 1.42013382118e-06 0
-0.00193149762783 -0.000620459982837 0
0.000837922634398 0.000300942273765 0
0.00160986782145 -0.0276281045827 0
-0.00130966092866 -0.00726264902578 0
0.000760699452621 -0.00165853052405 0
-0.00029776407208 -0.0323508799969 0
0.00365069396146 -0.0157450617469 0
-0.0041047529964 -0.0153172344624 0
-0.00145766424098 -0.000238771167137 0
0.000164618914453 -2.98931167386e-05 0
-0.00227534866765 -0.00105586726534 0
0.000808470126505 0.000141594739978 0
-0.00142932211805 -0.001951551384 0
0.00157088784572 4.49965044851e-05 0
0.00127180283023 -0.000562282363818 0
0.00178370151584 -0.0323521545396 0
-0.004743840486 -0.00508691159414 0
0.000766007306986 0.000239235336035 0
-0.00249862711719 -0.0300084563771 0
0.000796095195025 -0.00751164209232 0
0.000684490424431 -0.000102334592532 0
-0.00220326805586 -8.00397085278e-05 0
0.000817155750612 0.000330641132693 0
0.000749401381255 0.000335996457816 0
0.00058438191323 -1.72221574423e-05 0
-0.00283418144681 -0.000496543164578 0
0.00155227023928 -0.0100857230186 0
0.000277561607663 -4.21456786785e-05 0
-0.000162927006747 -0.0411903585655 0
-0.000772116443383 -0.0351991768745 0
-0.00134778742372 -0.00455278760243 0
0.00338052451307 -0.00232805005588 0
0.000901729473623 0.000341549224933 0
0.000656019540286 -0.000186126835357 0
-0.00227012329702 0.000152909454859 0
0.00233869684254 -0.000604878737209 0
0.000488829642765 -3.69205720271e-05 0
0.000784598437024 0.000202043884354 0
0.00215553780123 -0.00177487550071 0
0.00264186409535 -0.00100055804069 0
-0.00167919423995 -0.00340080949867 0
0.00126668890023 -0.0113248097088 0
-0.00323186375727 -0.00104848533923 0
-0.000677391489055 -0.0188479388612 0
-0.00341206830103 -0.00288901277092 0
0.000937260317633 0.000319206165642 0
-0.00259049550256 -0.00211410298875 0
-0.0014799891982 -0.000301666052924 0
0.000186428670382 -8.83296228442e-05 0
0.000873360610526 -0.000152603651699 0
-0.000907986316949 0.000212836720901 0
0.000798469749739 0.00018375838793 0
0.00215042247151 -0.0012229451993 0
-0.000719960524446 -0.00494159689499 0
-0.00128063507461 0.000430979059555 0
0.000818180219501 -0.000200415418143 0
-0.00257069052333 -0.00314775512316 0
0.000456983880795 3.25512930473e-05 0
-0.00393112168014 -0.00239556223235 0
0.00246005221256 -0.00331873413527 0
0.000876614442681 -0.000121538754386 0
-0.0052139311894 -0.0103630259287 0
-0.00208014239804 -0.00274495789596 0
0.00190041974298 -0.000286894772508 0
0.00468475348343 -0.0145683178928 0
0.000689703321844 0.000342083847539 0
-0.0019511540466 -0.0261698560651 0
0.000516601006738 -0.000867993124386 0
0.000697999601354 -2.37942677375e-05 0
-0.0022480610784 -0.000394609932402 0
0.000384019245836 5.62584129734e-06 0
0.00325599245109 -0.0028648895812 0
-0.00286958037778 -0.0161428487512 0
-0.00147962048482 -0.0223561693971 0
-6.25583138833e-06 -0.0286530711743 0
0.00421399312818 -0.0142272278007 0
-0.00472531907775 -0.0151042507829 0
0.00173311547562 -0.000700447401506 0
-0.0001799246357 -0.000542983353667 0
-0.00116589662124 -0.00258197367216 0
0.000468694157431 5.24429541179e-05 0
0.000826058068631 -0.000102133459794 0
-0.00119959952265 -9.52129189075e-06 0
0.00104589191402 -0.0253165994872 0
0.000675694773853 -0.0336127600754 0
-0.00227946195897 -0.0119541534636 0
-0.00227034249794 -0.00827254197636 0
-0.00275062357664 -0.000339067439373 0
0.000438059540147 -5.45257049774e-05 0
0.000931560732776 0.000274231645613 0
0.000783007649364 -0.000140991725358 0
-0.00152818008747 0.000137914554691 0
0.000748980082989 0.000153275925317 0
0.000408126269943 0.000175369419799 0
-0.000561959859388 -0.0456136617053 0
-0.00371644939765 -0.0193923136342 0
0.00419397844479 -0.00567510391802 0
0.000864124199552 0.000242831469645 0
0.00175714976149 -0.00281138374031 0
0.00094078696192 -0.00448551558709 0
-0.000895322005533 0.000483727920138 0
0.000878297726925 -0.000206011570968 0
0.00136794991869 -0.0330914860042 0
0.0023196485439 -0.0100202894081 0
-0.00371525647573 -0.0235340085468 0
-0.00217371021809 -0.000896274579542 0
0.000662160397037 0.000111738806869 0
0.00074406835829 4.67594474864e-05 0
0.000825437588346 -2.85127382769e-05 0
-0.00114314727915 -0.000347590158673 0
0.000833645313879 0.000209735653507 0
0.000853227843729 0.000282783230352 0
0.00157432542616 -0.00632829324481 0
0.00101876431441 0.000267749522975 0
0.00118729931623 0.000227442520079 0
-0.00435060101798 -0.0215266151385 0
0.00249363812939 -0.0257274772932 0
0.00371128312937 -0.00824009600013 0
-0.00351311980673 -0.00500374204663 0
0.00383883370967 -0.0204652280625 0
-0.00479178941787 -0.00813124457769 0
0.0011990565761 -0.000159989942319 0
-0.00377217367195 -0.011085577717 0
-0.00166825013274 -0.0313490689151 0
0.000784447015136 3.48636390357e-05 0
0.00162314986947 -6.68006463774e-05 0
-0.00156688941602 -0.000716699930859 0
-0.00275977922846 -0.0231455287079 0
0.00412136167064 -0.0186494226709 0
0.00353466737591 -0.00440148660687 0
0.000818921722613 0.000360650403694 0
0.000893597925759 0.00035596635506 0
-0.00221926110809 -0.0187956954913 0
-8.45628187166e-06 -0.038667521591 0
0.00144117624354 -0.014553140348 0
-0.000474286476492 -0.00103945221894 0
-0.000801402568842 -0.00167455916755 0
0.0011406571515 0.000132586075619 0
-0.00325714511967 -0.0274375880165 0
0.00252932260864 -0.00601398609249 0
0.0031940479904 -0.025709533829 0
0.000883355658767 9.18084733189e-05 0
-0.000117771947364 -0.00132487401881 0
-0.000741706693731 -0.0033701468126 0
0.00105578444137 0.000204781132007 0
0.000472511265467 -0.000213231473703 0
-8.85851282008e-05 -0.00343055038876 0