# vtk DataFile Version 2.0
Generated with Solid Solver
ASCII
DATASET UNSTRUCTURED_GRID
POINTS 1163 float 
0.0 3.5 0.0
2.2 3.5 0.0
2.2 4.0 0.0
0.0 4.0 0.0
0.0687499999999 3.5 0.0
0.1375 3.5 0.0
0.20625 3.5 0.0
0.275 3.5 0.0
0.343749999999 3.5 0.0
0.412499999999 3.5 0.0
0.481249999999 3.5 0.0
0.549999999999 3.5 0.0
0.618749999998 3.5 0.0
0.687499999998 3.5 0.0
0.756249999998 3.5 0.0
0.824999999998 3.5 0.0
0.893749999998 3.5 0.0
0.962499999997 3.5 0.0
1.03125 3.5 0.0
1.1 3.5 0.0
1.16875 3.5 0.0
1.2375 3.5 0.0
1.30625 3.5 0.0
1.375 3.5 0.0
1.44375 3.5 0.0
1.5125 3.5 0.0
1.58125 3.5 0.0
1.65 3.5 0.0
1.71875 3.5 0.0
1.7875 3.5 0.0
1.85625 3.5 0.0
1.925 3.5 0.0
1.99375 3.5 0.0
2.0625 3.5 0.0
2.13125 3.5 0.0
2.2 3.56430812579 0.0
2.2 3.6227083524 0.0
2.2 3.67574343203 0.0
2.2 3.72390623714 0.0
2.2 3.76764438299 0.0
2.2 3.80736436348 0.0
2.2 3.84343531161 0.0
2.2 3.87619247056 0.0
2.2 3.90594026646 0.0
2.2 3.93295517223 0.0
2.2 3.9574882542 0.0
2.2 3.97976750927 0.0
2.18000003888 4.0 0.0
2.15999995974 4.0 0.0
2.13999995594 4.0 0.0
2.12000003893 4.0 0.0
2.0999999813 4.0 0.0
2.07999993507 4.0 0.0
2.06000001965 4.0 0.0
2.04000002354 4.0 0.0
2.01999993997 4.0 0.0
1.99999999426 4.0 0.0
1.98000004623 4.0 0.0
1.95999996625 4.0 0.0
1.93999996787 4.0 0.0
1.92000005069 4.0 0.0
1.90000001292 4.0 0.0
1.87999994967 4.0 0.0
1.86000003245 4.0 0.0
1.84000003166 4.0 0.0
1.81999995194 4.0 0.0
1.80000002065 4.0 0.0
1.78000005962 4.0 0.0
1.75999997703 4.0 0.0
1.73999998149 4.0 0.0
1.72000006236 4.0 0.0
1.70000000651 4.0 0.0
1.67999995967 4.0 0.0
1.66000004242 4.0 0.0
1.64000004304 4.0 0.0
1.61999996152 4.0 0.0
1.6000000096 4.0 0.0
1.58000006667 4.0 0.0
1.55999998704 4.0 0.0
1.53999998381 4.0 0.0
1.52000006764 4.0 0.0
1.5000000299 4.0 0.0
1.47999996242 4.0 0.0
1.46000004337 4.0 0.0
1.4400000454 4.0 0.0
1.41999996386 4.0 0.0
1.40000002834 4.0 0.0
1.38000006734 4.0 0.0
1.35999998576 4.0 0.0
1.33999998537 4.0 0.0
1.32000006658 4.0 0.0
1.30000001585 4.0 0.0
1.27999996279 4.0 0.0
1.26000004759 4.0 0.0
1.24000004493 4.0 0.0
1.2199999616 4.0 0.0
1.20000000906 4.0 0.0
1.18000006792 4.0 0.0
1.15999998616 4.0 0.0
1.13999999119 4.0 0.0
1.12000007157 4.0 0.0
1.1 4.0 0.0
1.07999992843 4.0 0.0
1.06000000881 4.0 0.0
1.04000001384 4.0 0.0
1.01999993209 4.0 0.0
0.999999990948 4.0 0.0
0.98000003841 4.0 0.0
0.959999955072 4.0 0.0
0.939999952416 4.0 0.0
0.920000037214 4.0 0.0
0.899999984154 4.0 0.0
0.879999933427 4.0 0.0
0.860000014636 4.0 0.0
0.840000014246 4.0 0.0
0.819999932662 4.0 0.0
0.79999997166 4.0 0.0
0.780000036145 4.0 0.0
0.759999954604 4.0 0.0
0.73999995663 4.0 0.0
0.72000003758 4.0 0.0
0.699999970103 4.0 0.0
0.679999932361 4.0 0.0
0.660000016189 4.0 0.0
0.640000012962 4.0 0.0
0.61999993333 4.0 0.0
0.599999990406 4.0 0.0
0.58000003848 4.0 0.0
0.559999956964 4.0 0.0
0.539999957581 4.0 0.0
0.520000040329 4.0 0.0
0.499999993489 4.0 0.0
0.479999937647 4.0 0.0
0.460000018512 4.0 0.0
0.440000022972 4.0 0.0
0.419999940378 4.0 0.0
0.399999979352 4.0 0.0
0.380000048063 4.0 0.0
0.359999968347 4.0 0.0
0.339999967553 4.0 0.0
0.320000050328 4.0 0.0
0.299999987077 4.0 0.0
0.279999949312 4.0 0.0
0.260000032129 4.0 0.0
0.240000033752 4.0 0.0
0.219999953776 4.0 0.0
0.200000005737 4.0 0.0
0.180000060031 4.0 0.0
0.159999976465 4.0 0.0
0.139999980354 4.0 0.0
0.120000064926 4.0 0.0
0.100000018697 4.0 0.0
0.0799999610675 4.0 0.0
0.0600000440571 4.0 0.0
0.0400000402596 4.0 0.0
0.0199999611169 4.0 0.0
0.0 3.97976750927 0.0
0.0 3.9574882542 0.0
0.0 3.93295517223 0.0
0.0 3.90594026646 0.0
0.0 3.87619247056 0.0
0.0 3.84343531161 0.0
0.0 3.80736436348 0.0
0.0 3.76764438299 0.0
0.0 3.72390623714 0.0
0.0 3.67574343203 0.0
0.0 3.6227083524 0.0
0.0 3.56430812579 0.0
0.249757963562 3.75212589829 0.0
1.94999996706 3.74954522137 0.0
0.488710285893 3.75947702441 0.0
0.726520490699 3.7655965719 0.0
0.967283134849 3.7597072979 0.0
1.20619032017 3.75831098673 0.0
1.45842774915 3.76733088374 0.0
1.69012076678 3.7622332834 0.0
0.130754044069 3.86878249167 0.0
2.06924595593 3.86878249167 0.0
1.8299999918 3.84622455633 0.0
1.56816462369 3.85034872999 0.0
0.369913859351 3.84868157925 0.0
0.608733620231 3.84706187144 0.0
1.33069778866 3.84790908234 0.0
0.84323446252 3.84762979148 0.0
1.08873170817 3.84705870913 0.0
0.250539365135 3.87785524304 0.0
1.94967747948 3.87849609822 0.0
1.73218750075 3.8916046151 0.0
0.468661874066 3.89189322974 0.0
1.47574192429 3.89639134117 0.0
0.704258110321 3.8963912684 0.0
1.18331258449 3.8976320365 0.0
0.949999953744 3.89208018478 0.0
1.64795374468 3.91749779939 0.0
0.548928463645 3.91905583847 0.0
1.38619509199 3.91928594438 0.0
0.788926872841 3.91906062101 0.0
1.27071160784 3.91777932845 0.0
1.02999997296 3.91685174433 0.0
1.81733541416 3.69950870754 0.0
1.86999999106 3.91823503401 0.0
0.071252620538 3.93011431841 0.0
2.12874737946 3.93011431841 0.0
2.07400690796 3.74293885365 0.0
0.125993092043 3.74293885365 0.0
0.32995676804 3.92118147353 0.0
2.00999996712 3.92542383197 0.0
0.190000032884 3.92542383197 0.0
1.56698738743 3.72218882919 0.0
1.33000000474 3.72531695685 0.0
0.848014510843 3.71986098938 0.0
1.09024665585 3.72285801424 0.0
0.610276609989 3.72290563624 0.0
1.54999998543 3.92414142844 0.0
0.629999973146 3.92414137652 0.0
0.869999974031 3.92414141814 0.0
1.11000003579 3.92414141267 0.0
1.79030638642 3.92649353654 0.0
0.370434802927 3.72513294336 0.0
0.410903135411 3.92892991244 0.0
1.33000002597 3.93737911571 0.0
0.129927648482 3.94112154503 0.0
2.07007235152 3.94112154503 0.0
1.93000000928 3.93875927586 0.0
0.26999999072 3.93875927586 0.0
1.40966706061 3.83880068991 0.0
0.770332962441 3.83880062149 0.0
1.24904900022 3.84293377683 0.0
1.01033287484 3.83880060723 0.0
0.530342681434 3.83880307444 0.0
0.189895273961 3.63486992823 0.0
2.00989835291 3.62845703161 0.0
0.998888153878 3.61665036233 0.0
1.47894673873 3.61675180774 0.0
0.51733910646 3.62937665489 0.0
0.705112628302 3.618743723 0.0
1.66672137035 3.63168728155 0.0
1.18508242495 3.61871739348 0.0
1.71000003443 3.94408608591 0.0
0.489999965568 3.94463856597 0.0
1.44983363802 3.94422347836 0.0
0.729999997105 3.94465012565 0.0
1.21016639734 3.94422345842 0.0
0.928621800545 3.94440037102 0.0
2.00626203014 3.81543543551 0.0
0.193627962274 3.81528928332 0.0
1.66628164144 3.83559795895 0.0
1.75661718781 3.81065958113 0.0
1.61143779865 3.94859227761 0.0
0.991673865748 3.95161238438 0.0
0.0604617941233 3.86281264864 0.0
2.13953820588 3.86281264865 0.0
0.300965570716 3.8114148258 0.0
0.2970894797 3.66361086085 0.0
0.398842167194 3.60449226805 0.0
1.51000004877 3.95218393067 0.0
1.90135619383 3.81213273629 0.0
0.669405272842 3.95495208979 0.0
1.07142780558 3.94866325309 0.0
0.592085094025 3.94901139323 0.0
0.831051660929 3.94633985879 0.0
1.14940528892 3.9549521224 0.0
0.44409344258 3.82719938178 0.0
1.49646539728 3.82376850413 0.0
0.683434082651 3.82631713605 0.0
0.92337834777 3.8234861632 0.0
1.16343437877 3.82631615351 0.0
1.90749084149 3.65350700271 0.0
1.8278758005 3.95083911942 0.0
0.37243073327 3.95235211027 0.0
1.29345662549 3.60569899261 0.0
0.813407949226 3.60572380122 0.0
1.29317153636 3.96216077293 0.0
1.367704599 3.96055764734 0.0
1.97071235041 3.96038324024 0.0
0.22928764959 3.96038324024 0.0
2.10610581798 3.66047411138 0.0
0.0938941820177 3.66047411138 0.0
1.67000000105 3.95862953468 0.0
1.74869816704 3.96079301687 0.0
0.531976761939 3.96138655466 0.0
0.451361042387 3.96112774725 0.0
0.771976832233 3.96138887156 0.0
1.88843481911 3.95881554986 0.0
1.61277513709 3.78538823015 0.0
2.13311214501 3.79435403671 0.0
0.0668878549946 3.79435403671 0.0
1.76678797151 3.60286552601 0.0
0.311702446283 3.9611157379 0.0
1.02877762737 3.96159282031 0.0
1.40830122607 3.96143175203 0.0
1.25214210333 3.957355862 0.0
1.59476493393 3.9048774062 0.0
1.56950979124 3.96148017208 0.0
0.890017020275 3.96125792969 0.0
2.03089110475 3.96040268709 0.0
0.169108895255 3.96040268709 0.0
0.939722125942 3.68539157065 0.0
1.41686981874 3.69192854313 0.0
0.0426348006718 3.96101756902 0.0
2.15736519933 3.96101756902 0.0
1.36077308019 3.79177204211 0.0
0.817982383499 3.78962669257 0.0
1.05834720932 3.78780184893 0.0
0.578349529346 3.78781530011 0.0
1.77992711518 3.87652731382 0.0
0.417982153133 3.87594990465 0.0
1.84363633012 3.77741329286 0.0
1.52244994479 3.87704541475 0.0
0.657426528912 3.87734838249 0.0
1.13742651778 3.87734834025 0.0
0.898116026439 3.8800466833 0.0
1.56984259435 3.64465823131 0.0
1.08983016076 3.6446495206 0.0
0.609942357805 3.64483976081 0.0
1.29451769374 3.79627773068 0.0
0.0893439668432 3.96574839433 0.0
2.11065603316 3.96574839433 0.0
2.01422398896 3.86980625824 0.0
0.185776011038 3.86980625824 0.0
0.305957237756 3.87340573745 0.0
1.72977480551 3.68665973332 0.0
1.25418096296 3.69351129461 0.0
0.629999973146 3.96272981435 0.0
1.11000003579 3.96272983221 0.0
0.772975283819 3.69297597031 0.0
1.89089074715 3.86951346173 0.0
0.445448577516 3.69456159386 0.0
1.82621986864 3.89678318705 0.0
2.07135424223 3.81165410377 0.0
0.128645757768 3.81165410377 0.0
0.373320289473 3.89968791662 0.0
1.79000004014 3.96541718891 0.0
0.383302070088 3.78976392323 0.0
0.409457623385 3.96502881851 0.0
1.55531527123 3.78787141386 0.0
1.34861332978 3.89383287415 0.0
0.593245985735 3.89483466551 0.0
0.833245353375 3.89479604398 0.0
1.0732444554 3.8948349405 0.0
0.911896623122 3.59194725763 0.0
0.187580554011 3.70699710313 0.0
2.01241944599 3.70699710313 0.0
1.39201907571 3.59233063354 0.0
2.09635520798 3.90516200201 0.0
0.103644792024 3.90516200201 0.0
1.89086147526 3.72621461413 0.0
1.02102684616 3.70044819701 0.0
1.49813234221 3.70194667869 0.0
0.53965669049 3.70593418829 0.0
1.63719578665 3.69772473547 0.0
0.685447658936 3.70127585046 0.0
1.16541741817 3.70128744764 0.0
0.901649266036 3.76287226775 0.0
0.992351690321 3.90662993531 0.0
1.69131894868 3.90657323657 0.0
1.9699561555 3.91599371502 0.0
0.230043844497 3.91599371502 0.0
1.61980840676 3.85005402918 0.0
2.04685187594 3.90639759008 0.0
0.153148124058 3.90639759008 0.0
0.512139828486 3.90538520837 0.0
1.43057458921 3.90702644399 0.0
0.749149996349 3.90689574876 0.0
[...]
POINT_DATA 1163
VECTORS Displacement float
0.0 0.0 0
0.0 0.0 0
0.00822661899078 -0.00201068455849 0
-0.0117478752393 -0.00183531546694 0
0.0 0.0 0
0.0 0.0 0
0.0 0.0 0
0.0 0.0 0
0.0 0.0 0
0.0 0.0 0
0.0 0.0 0
0.0 0.0 0
0.0 0.0 0
0.0 0.0 0
0.0 0.0 0
0.0 0.0 0
0.0 0.0 0
0.0 0.0 0
0.0 0.0 0
0.0 0.0 0
0.0 0.0 0
0.0 0.0 0
0.0 0.0 0
0.0 0.0 0
0.0 0.0 0
0.0 0.0 0
0.0 0.0 0
0.0 0.0 0
0.0 0.0 0
0.0 0.0 0
0.0 0.0 0
0.0 0.0 0
0.0 0.0 0
0.0 0.0 0
0.0 0.0 0
0.00160980128059 -0.00138726324296 0
0.00294110440837 -0.0019491749412 0
0.00408465542745 -0.00217982837355 0
0.00497222267719 -0.0022392961484 0
0.00566389563219 -0.00221671504128 0
0.0062114910231 -0.00216200270842 0
0.00663924331527 -0.00211096052657 0
0.00700026923195 -0.00206729018344 0
0.00730179718759 -0.00203613255148 0
0.00756674434239 -0.00202024542858 0
0.00780557602731 -0.00201285074606 0
0.00802486042562 -0.00201059978906 0
0.00822671417138 -0.00181046819319 0
0.00822555527409 -0.00160731505622 0
0.00822111931068 -0.00140234654455 0
0.00821194656782 -0.00119686745664 0
0.00819778257786 -0.000993421416328 0
0.008178819929 -0.000794598808614 0
0.00815370250301 -0.000600774934043 0
0.0081247364558 -0.000416014388743 0
0.00808958320495 -0.000239523303604 0
0.00805167971136 -7.44895285585e-05 0
0.00800623349561 7.98012090277e-05 0
0.00795602746723 0.000218798057057 0
0.0079026150216 0.000342262182207 0
0.00784096013165 0.000450594344378 0
0.0077757856743 0.0005398374965 0
0.0076991405331 0.000610946250491 0
0.00761601895382 0.000658297657907 0
0.00752140799586 0.000684365998799 0
0.00741730397234 0.000679970774971 0
0.00729373438437 0.000645323272695 0
0.00715869422561 0.000574720516406 0
0.00701513273698 0.000462131052196 0
0.00684513088019 0.000314840075104 0
0.00665863211374 0.000109656024966 0
0.00644035862774 -0.000147081990441 0
0.00621012200187 -0.000472059375442 0
0.00593883434369 -0.000863636464918 0
0.00564444907393 -0.00134582230616 0
0.00531535080445 -0.0019167934183 0
0.00497610873799 -0.00259199439857 0
0.00460032101549 -0.00339956675571 0
0.00416308830336 -0.00431851820823 0
0.00371464876771 -0.00539515094638 0
0.00322033167622 -0.00664402750633 0
0.00270423650131 -0.00808803365617 0
0.00214616598051 -0.00973842570149 0
0.00155121345897 -0.0116442717586 0
0.000916156406381 -0.0138484049299 0
0.000317938070231 -0.0163730039791 0
-0.000327565158178 -0.0193006073309 0
-0.000904304192862 -0.0226018834276 0
-0.00144736536343 -0.0264159681954 0
-0.00188392019775 -0.0308408397847 0
-0.00229081021224 -0.0361243956214 0
-0.00223824969173 -0.0423916704522 0
-0.00153130793829 -0.0502498044124 0
0.000137822778523 -0.0600246480592 0
0.00202434436697 -0.0690738468654 0
0.00364325695743 -0.077776443816 0
0.00519234984482 -0.0858734693624 0
0.00647913597921 -0.0935641002522 0
0.00751420194317 -0.100802134456 0
0.00828915599117 -0.107597078749 0
0.00883618515916 -0.113952281856 0
0.00907074792549 -0.119899826095 0
0.00909043635453 -0.125359800913 0
0.00889231388113 -0.130347878733 0
0.00841970297916 -0.134858498198 0
0.00776434740444 -0.138868246706 0
0.00693890283646 -0.14236775012 0
0.00593342170399 -0.145346238633 0
0.00478859027687 -0.147797473302 0
0.0034915539178 -0.149711143426 0
0.00208116502544 -0.151073679579 0
0.000588410971442 -0.151855232194 0
-0.0010099877855 -0.152111038449 0
-0.00271115948599 -0.15184557625 0
-0.00424824664342 -0.150986863312 0
-0.00568066333308 -0.149573095211 0
-0.00699174206382 -0.147609232281 0
-0.00817230746886 -0.145107594931 0
-0.00922982304069 -0.142070745382 0
-0.0100969868915 -0.138513890304 0
-0.0107719402832 -0.134447436194 0
-0.0112661350354 -0.129872978983 0
-0.0115221046231 -0.124797871478 0
-0.0115252296671 -0.119290148091 0
-0.0112937836132 -0.113341653126 0
-0.0108513644881 -0.106913911862 0
-0.0100686649762 -0.100039777437 0
-0.00914330758611 -0.0927015889756 0
-0.0078757459639 -0.0849331756968 0
-0.00645162912748 -0.0767238609444 0
-0.00479360371076 -0.0678899669206 0
-0.00312164461629 -0.0586687394984 0
-0.00153653455339 -0.0487327331247 0
-0.00135923811548 -0.041598490012 0
-0.00174707831508 -0.0356525537999 0
-0.00223375559259 -0.0307808544236 0
-0.00292300747556 -0.0265556932758 0
-0.00375166594053 -0.0229772303662 0
-0.00451961907232 -0.0198908826435 0
-0.00529145337141 -0.0172455715968 0
-0.00607365253604 -0.0149470062136 0
-0.00682766809824 -0.0129822804988 0
-0.00750989694437 -0.0112862462513 0
-0.00819278989559 -0.00984447860509 0
-0.00879525426143 -0.0086155021806 0
-0.00937143417841 -0.00757411536969 0
-0.00989240560706 -0.00671349587433 0
-0.0103265590597 -0.00597187008145 0
-0.0107211805016 -0.00535411429624 0
-0.0110389054666 -0.00481342189069 0
-0.0113026448954 -0.00435772246795 0
-0.0114940875574 -0.0039339990124 0
-0.0116281109588 -0.00354082997497 0
-0.0117086188594 -0.00314906151215 0
-0.0117439982562 -0.0027388448221 0
-0.0117497887112 -0.00230181795091 0
-0.0122254971886 -0.00183345723904 0
-0.0127817522989 -0.0018480738276 0
-0.0134323377872 -0.00190957409292 0
-0.0141617661332 -0.00204994517863 0
-0.0149158455405 -0.00234828948982 0
-0.0155520203788 -0.0028041661215 0
-0.0160452216254 -0.00341613422119 0
-0.0160468858863 -0.00419897001839 0
-0.0153783506734 -0.004989991806 0
-0.0137365956025 -0.00565406884479 0
-0.0106059854544 -0.00571182699693 0
-0.00615343206246 -0.00449374834214 0
-0.0185179876861 -0.00768543131609 0
0.00601203847438 4.59980914088e-05 0
-0.0231924649051 -0.0320551247406 0
-0.0136664290081 -0.0650351286154 0
0.00644393249692 -0.0681680889167 0
0.020026879621 -0.0421513282023 0
0.0162984998476 -0.0104992897581 0
0.00965655044569 -0.000786079723978 0
-0.0154535300482 -0.00439846093805 0
0.00697656634321 -0.000677730780653 0
0.00773368777226 0.000574519695652 0
0.0112064092773 -0.00386297648818 0
-0.0201860742112 -0.0199522271562 0
-0.0210567431684 -0.0687745795895 0
0.0186776606419 -0.0298974655023 0
-0.00441779588394 -0.0977853161709 0
0.0152894112808 -0.0808523840412 0
-0.01606991872 -0.00875115273119 0
0.00726699643738 0.000278894492514 0
0.008183510065 0.000281853098399 0
-0.0204853603259 -0.0409311956967 0
0.0109494533528 -0.00988875100908 0
-0.0149095209203 -0.0997627125911 0
0.0174245933651 -0.0725055753479 0
0.00478942667516 -0.111076479397 0
0.00808044027437 -0.00100658740543 0
-0.0191145045441 -0.0676493528957 0
0.0111032217001 -0.0212813222221 0
-0.00861600360185 -0.118236789044 0
0.0154447626494 -0.0495886745483 0
0.0103123265642 -0.110443680479 0
0.0066166755131 -7.39843409144e-05 0
0.00757642432676 0.000667664482702 0
-0.0135298451354 -0.00334999010216 0
0.00754231230786 -0.00128282854357 0
0.00536564452364 -0.000716430036784 0
-0.0164056914277 -0.00408026365831 0
-0.0141573656767 -0.0156094453634 0
0.00750400902078 -0.000133907368571 0
-0.0134399592929 -0.00601204738164 0
0.0125159290987 -0.00390523064054 0
0.0194291578647 -0.0212900586587 0
-0.00345225744616 -0.0579651332351 0
0.014485264389 -0.0489390218615 0
-0.0192549562961 -0.0423103607159 0
0.00824123016856 -0.00460613845448 0
-0.0172533873331 -0.0917089495012 0
-0.00200827363658 -0.124394953086 0
0.0139105011556 -0.0971776035224 0
0.00765443234433 0.000675996300652 0
-0.0207859370406 -0.0151710660649 0
-0.0148986786853 -0.0284245676859 0
0.0107196272156 -0.0331609101428 0
-0.0130126021337 -0.00441473094757 0
0.00763459720164 -0.000683056864349 0
0.00759414814478 0.000429188513952 0
-0.012475302526 -0.0101418202344 0
0.0163377065537 -0.016848859084 0
-0.0106619251449 -0.0905382761734 0
0.0203822136265 -0.0470337491075 0
0.0100151660566 -0.0888148649814 0
-0.023279549211 -0.0501432384126 0
-0.0125054053268 -0.00359017661307 0
0.00328038956755 -0.000273033803065 0
0.00577278472465 -0.0274465722703 0
0.0108948879774 -0.00516158295617 0
-0.0157377866082 -0.0179113578384 0
-0.00974478939022 -0.0259635662768 0
0.00745703004461 -0.00130260123984 0
0.0128888130239 -0.0198906497113 0
0.0074369138437 9.7876483543e-05 0
-0.0154293002614 -0.0509367106776 0
0.00725677083617 -0.0125027504132 0
-0.0120553614791 -0.118805384018 0
0.0134039198056 -0.0729647280591 0
0.00276948413338 -0.130378206335 0
0.00654543144633 -0.000164721738343 0
-0.0172528901423 -0.00590995505869 0
0.00971678065706 -0.000865922101428 0
0.0085221741062 0.000172491174873 0
0.00706894748235 -0.00202267958047 0
0.00721942881847 -0.127133937165 0
-0.015385873978 -0.00339679925911 0
0.0068741453388 -0.00140988905216 0
-0.0195103841099 -0.0118592836328 0
-0.0163934723254 -0.00761381195905 0
-0.0134365878038 -0.00887456460412 0
0.00651482883688 -0.00711691877363 0
0.00705539799668 0.00036783280897 0
-0.0142621702761 -0.109479281288 0
0.0113868668447 -0.112566539714 0
-0.0160092006309 -0.0867849938669 0
-0.00511161089925 -0.130906451011 0
0.0125530873437 -0.0943877616978 0
-0.0229839254769 -0.0310745249706 0
0.0139624087494 -0.00810012870479 0
-0.0172099460417 -0.0767150700544 0
0.00275283207344 -0.089840975744 0
0.0191360649782 -0.0623885994833 0
0.00458184231122 -0.000105352535498 0
0.00754651403803 0.000737481303754 0
-0.0111038106774 -0.0214720132957 0
0.0127792867904 -0.0123012951631 0
-0.00397836221815 -0.0254788381776 0
0.00796326939855 -0.0445815547888 0
0.00588517870447 -0.0247743337641 0
0.00772765968652 0.000168844513116 0
-0.0113487638495 -0.0077633907806 0
0.00373645284357 -0.000845888888301 0
-0.0131313497652 -0.0032868163148 0
0.00700519560577 -0.000533629688733 0
0.00730172734703 0.000464651284072 0
-0.0138515114374 -0.068340633347 0
-0.0110829923656 -0.0387419824855 0
-0.0092332753961 -0.130671017188 0
0.00762486267173 0.000619805371831 0
0.0114321049213 -0.00239651658279 0
0.00606365775399 -0.0013383874963 0
-0.0164193785057 -0.00375850878571 0
0.00470826777673 -0.000535546164411 0
-0.0102776583887 -0.0137614746302 0
0.00912743280818 -0.124770499166 0
0.00544897039426 -0.0178003931891 0
0.0107725499657 -0.0596826201405 0
0.00883647707199 -0.0026069182605 0
0.00627571421123 -0.00367206169633 0
-0.000322890378847 -0.13769066472 0
0.00777941541136 -0.000317612262999 0
-0.0120217659759 -0.00542615064781 0
0.0035835467568 -0.0474661979844 0
0.0164175141262 -0.0112937835167 0
-0.0126804383685 -0.00279418886152 0
0.00783933282841 -0.00157994367918 0
0.0193496716747 -0.0219464072856 0
-0.00657231057028 -0.0782915470409 0
0.0135507170291 -0.0689409819598 0
-0.0222897414561 -0.0508449097437 0
0.00802442945117 0.000551965593565 0
-0.0201416611389 -0.0286592584263 0
0.0073147703159 0.000313062924437 0
0.0110727808374 -0.00634079551921 0
-0.018083955844 -0.0858671748597 0
0.0169868921054 -0.0792083455779 0
0.00039494886624 -0.109123741013 0
0.0102316325326 -0.0031521270494 0
0.0113065431146 -0.03054539622 0
-0.0150255333951 -0.026628398909 0
0.0207544925636 -0.0327344216575 0
-0.0124210359293 -0.00366500694445 0
0.00787278467557 -0.00109530952847 0
0.0070603689854 -0.000185434647557 0
-0.0157467900274 -0.00579027212853 0
-0.0172482137468 -0.0129145524427 0
0.00784975710505 -0.000637198339129 0
0.0185589829243 -0.0261925618267 0
-0.0144870329578 -0.101188016033 0
0.011632825414 -0.107267681023 0
-0.00881956231133 -0.0479525401844 0
0.00742480198467 0.000543190961163 0
-0.0206352851015 -0.0199049838032 0
0.00770015090582 0.000698165103917 0
0.00634528223129 -0.000701939472247 0
-0.0166226273093 -0.00433048174195 0
-0.0169754902078 -0.0213558351288 0
0.00740405227695 0.000669285405015 0
-0.0220361790246 -0.0197531690106 0
-0.00939311541736 -0.0282666097852 0
0.0129468463801 -0.00459012180571 0
0.0149950099676 -0.0281363851699 0
-0.0200138870006 -0.0756225295757 0
-0.00520486589188 -0.113174898294 0
0.0133800847128 -0.0966855169604 0
0.00104551331216 -0.0223674295157 0
-0.0162282655159 -0.00477859333661 0
0.00494090226512 -0.000290137036673 0
0.0105901654219 -0.00686500718852 0
0.00731064283504 -0.000944982348852 0
-0.0142899339264 -0.00390157741271 0
0.00617337858515 9.94946246194e-05 0
0.00962313348347 -0.0483602614599 0
0.0142743001422 -0.00670333705272 0
-0.0206013287695 -0.0313280068489 0
0.0101731790864 -0.00191604931173 0
-0.0147127572486 -0.0446537855946 0
0.0171167535942 -0.0367368986045 0
0.000873852570404 -0.0711067354871 0
0.0079127578639 -0.112127131853 0
0.00816712794368 -0.000198142466428 0
0.00746099042215 0.000172051866599 0
-0.0139161306823 -0.00769174558942 0
0.0102081325301 -0.00195987577984 0
0.00733805844603 -0.000461583706182 0
-0.0142574251625 -0.00490478244319 0
-0.0202010184719 -0.0544134939805 0
0.0111493791958 -0.0147236369646 0
-0.0117111631352 -0.109722991012 0
0.0167489423369 -0.0618456879798 0
0.0050108465194 -0.00132468097723 0
-0.0156842075269 -0.00392560471183 0
0.00479527373049 -0.136107434797 0
-0.0143822858643 -0.00293361499377 0
0.00725508645046 -0.00161136399916 0
0.00513019693236 -0.00973506476073 0
-0.0126363921732 -0.120286916576 0
0.0110557351849 -0.0865104252921 0
-0.0179037374458 -0.00830810170388 0
-0.0200606807456 -0.0116320366435 0
0.0186351360802 -0.0411581983164 0
0.00687940473822 0.000181796345963 0
0.00584772734907 -0.0333360796676 0
0.00812373188518 -7.55825128987e-05 0
0.0170442331194 -0.0592237057789 0
-0.019515584517 -0.0580802906568 0
0.00828463906457 -0.00928040779484 0
-0.0142371981771 -0.108591346114 0
0.0148942267432 -0.0806413114437 0
0.00658323124212 -0.00127894929237 0
-0.00180676173875 -0.0821864831083 0
0.00314237041244 -0.000228599162202 0
0.00770225454937 0.000423984493435 0
-0.0105095762353 -0.0102503822651 0
-0.0135717748162 -0.0794379684696 0
-0.00740302108413 -0.135608864132 0
0.0058349671656 -0.00511941504821 0
-0.00259312343847 -0.138920150206 0
0.00758990829255 0.00068844261218 0
0.00785057170813 -0.000684396093872 0
-0.0121716529068 -0.00446843945 0
-0.00916342979744 -0.0166427575262 0
0.00886775662119 -2.34172472897e-05 0
0.00780590099094 -4.18978926635e-05 0
-0.0113051760554 -0.0065830861793 0
-0.0231138960901 -0.0402931250961 0
0.0143820579497 -0.0115079307638 0
-0.0143970750472 -0.0874104951073 0
0.0199186331933 -0.0581063296822 0
0.0061104452368 -0.0950072681187 0
0.00257404921388 -0.000204952116268 0
-0.00896455814612 -0.00331958026065 0
0.00780161206131 0.000474160663886 0
0.00554492427509 -0.122844068491 0
-0.0175289535362 -0.037200478374 0
0.0153155544303 -0.0384941361238 0
-0.00829469098074 -0.103082447426 0
0.0116667191458 -0.095322436721 0
-0.0219057939226 -0.0619072945793 0
-0.00731604857404 -0.00192587864874 0
0.00184790990965 -0.000346566619764 0
-0.00986637327117 -0.00492128844291 0
0.00750308624548 0.000545249193538 0
-0.0150478447868 -0.0121967973495 0
0.0147379136068 -0.00721285697379 0
0.0155116308581 -0.0213605787249 0
0.00121022603479 -0.119959272634 0
-0.0225000455335 -0.0230349413033 0
0.00883791196905 -0.00653831496325 0
-0.0163155899608 -0.0980294375991 0
0.0153247090025 -0.0868575715072 0
0.0066203176981 -0.000992838198377 0
-0.016057605679 -0.00393914005183 0
0.00701681450488 6.5062941626e-05 0
0.00769227161916 -0.00334112222962 0
0.00590475986318 -0.000365668298679 0
-0.0171989646178 -0.00499793842412 0
-0.0111388593111 -0.0527097049223 0
0.00499714059082 -0.0120790734567 0
-0.0116685065568 -0.124974184651 0
0.00300171532559 -0.138713757316 0
0.0106067709828 -0.0780334821392 0
0.0203545113873 -0.0314526332682 0
0.00905704325694 -0.000759908895673 0
0.00639098898548 -0.00165259994307 0
-0.0160676332331 -0.00347611328823 0
0.0181102061134 -0.0151979574316 0
0.00460782661402 -0.00125270958719 0
0.00793817472674 0.000360267969249 0
0.007002420467 -0.0114205646049 0
0.0164880470807 -0.0150181426242 0
-0.00706005010281 -0.0119185948873 0
-0.00236737557552 -0.0411931637267 0
-0.0163463776777 -0.00633112153719 0
-0.00893559265628 -0.062759216693 0
-0.0206375242436 -0.0158810842892 0
0.00997854945293 -0.0038361477928 0
-0.010351277882 -0.00847994408998 0
-0.00787158874961 -0.00279886853858 0
0.00205017356798 -0.000877188361262 0
0.00791334934717 -0.00135293420835 0
-0.0124233169535 -0.00321344484388 0
0.0075841882199 0.000638297961252 0
0.00958759435303 -0.0107981262534 0
-0.00516524294874 -0.0171227787472 0
-0.0135526457161 -0.002631102021 0
0.0075367405159 -0.00170656732905 0
-0.0100378444787 -0.0116008324208 0
0.00488559590027 -8.44867591168e-05 0
-0.0179018874644 -0.0113743409306 0
0.0056997512907 -0.0170023404553 0
0.0072656309878 -0.00287305639996 0
-0.0234690258507 -0.041623712345 0
-0.0174557360854 -0.0158344396941 0
0.0172464606015 -0.0137903725189 0
0.00974393296487 -0.0732688105339 0
0.00601194926764 -0.00217576736914 0
0.00678717281438 -0.135557364812 0
0.0118535792215 -0.0270163242755 0
0.00674879974152 -0.000407957098296 0
-0.0163751383612 -0.00501710918191 0
0.00396634134789 -0.000658263670074 0
0.0210896765882 -0.0396516484912 0
0.00947027454561 -0.125834990747 0
-0.0112647192124 -0.0727728718969 0
-0.00763319550243 -0.0931461361345 0
0.0124981361891 -0.0866423951701 0
-0.0225728834991 -0.0589259206039 0
0.0178230858016 -0.0223091001763 0
0.00286498400444 -0.0205272208527 0
0.00594578257013 -0.0544609356618 0
0.00506063476554 -0.000174012229726 0
0.00758409532455 -0.000978621369999 0
-0.0133205082499 -0.0038359794175 0
-0.0135954314263 -0.0963464177939 0
-0.0134802152323 -0.110426097946 0
0.0108394502233 -0.115183612333 0
0.0110150505156 -0.103108035535 0
-0.0152783504931 -0.00378789100408 0
0.00460154549344 -0.000622147926113 0
0.00947785522076 -0.000462579578984 0
0.00729869649496 -0.00127198232118 0
-0.0142926760289 -0.00341677438334 0
0.00737122474747 0.000499306339294 0
0.00435189012425 -0.00722708746241 0
-0.00501112308715 -0.144047261327 0
-0.0170112012041 -0.0641613893929 0
0.0191076035364 -0.0526695390429 0
0.00744626882869 0.000715130786328 0
0.0192970396398 -0.0486917361806 0
-0.00803906636224 -0.023907015237 0
-0.0124005238031 -0.00245920773223 0
0.00795244217384 -0.00174084345223 0
-0.00241988140558 -0.113022398934 0
0.0151962608165 -0.0891045235994 0
-0.0191212067603 -0.082563898696 0
-0.0165571385565 -0.007216215632 0
0.00677515720871 0.000269961364831 0
0.00709985479271 5.87293362645e-05 0
0.00756638450347 -0.000441800764685 0
-0.0131981678597 -0.00498035979209 0
0.00759934880282 0.000724068458829 0
0.00724209498389 0.00057261091935 0
-0.00725326603136 -0.0328565965402 0
0.010352247406 -0.00125687586472 0
0.0124241865305 -0.00574708595307 0
-0.0194554200032 -0.0731552756154 0
-0.00034104323439 -0.0936446811179 0
0.01737779286 -0.0719036317602 0
-0.0217398817241 -0.0253022525137 0
0.00821021008293 -0.0998494759337 0
-0.0237130911502 -0.0356370313966 0
0.014075520115 -0.0146302718082 0
-0.0224956936431 -0.0493494219819 0
-0.0121414094836 -0.0982748336285 0
0.00732329642349 -1.09038632954e-05 0
0.015739333293 -0.0109444920368 0
-0.0147139532716 -0.00649675145222 0
-0.0145870379286 -0.0747650592105 0
0.00596457868867 -0.0814862324541 0
0.020369900784 -0.0506937253234 0
0.00813296689581 -0.0017709994483 0
0.00905435759534 -0.00145329337619 0
-0.018432710063 -0.0767456491946 0
-0.00652831058039 -0.122190594399 0
0.0118593175638 -0.106809926223 0
0.00290172336045 -0.0285657689361 0
0.00365525909113 -0.0389006211542 0
0.0126018956799 -0.00871088234681 0
-0.0164409894857 -0.088217813598 0
0.0185497884011 -0.0693130115061 0
0.00342121891502 -0.103104111943 0
0.00780626442343 0.000305984129621 0
-0.00982819387319 -0.0090774256714 0
-0.013663341733 -0.0188797411094 0
0.0105806618842 -0.00162534194643 0
0.00852321329187 -0.0157729396687 0
0.0140710437601 -0.0626467654378 0
0.00837202968539 0.000332161815427 0
0.00772364601103 0.000514945017226 0
-0.0131059304016 -0.116463034751 0
0.0109108940756 -0.094833008224 0
0.00641321854597 1.33121998846e-05 0
-0.0180950885792 -0.00700846881703 0
0.0113081711015 -0.0604278916329 0
-0.0150880566018 -0.00300704817488 0
0.00697762623894 -0.00168216741404 0
-0.0190189597875 -0.0158394554596 0
-0.0220360108251 -0.0405273889588 0
-0.00899811579226 -0.01183007614 0
-0.0218574672984 -0.0349748282862 0
0.00744897292326 0.000340131053073 0
-0.0144310726233 -0.00913795798344 0
0.00860627390369 -0.000243819017401 0
-0.00699524529795 -0.00201762036528 0
0.00176165333692 -0.000191311108291 0
-0.0175840203422 -0.0101102681954 0
0.00300172815444 -0.0161267741199 0
0.00766419528876 -0.00377101620876 0