# vtk DataFile Version 2.0
Generated with Solid Solver
ASCII
DATASET UNSTRUCTURED_GRID
POINTS 1163 float 
0.0 3.5 0.0
2.2 3.5 0.0
2.2 4.0 0.0
0.0 4.0 0.0
0.0687499999999 3.5 0.0
0.1375 3.5 0.0
0.20625 3.5 0.0
0.275 3.5 0.0
0.343749999999 3.5 0.0
0.412499999999 3.5 0.0
0.481249999999 3.5 0.0
0.549999999999 3.5 0.0
0.618749999998 3.5 0.0
0.687499999998 3.5 0.0
0.756249999998 3.5 0.0
0.824999999998 3.5 0.0
0.893749999998 3.5 0.0
0.962499999997 3.5 0.0
1.03125 3.5 0.0
1.1 3.5 0.0
1.16875 3.5 0.0
1.2375 3.5 0.0
1.30625 3.5 0.0
1.375 3.5 0.0
1.44375 3.5 0.0
1.5125 3.5 0.0
1.58125 3.5 0.0
1.65 3.5 0.0
1.71875 3.5 0.0
1.7875 3.5 0.0
1.85625 3.5 0.0
1.925 3.5 0.0
1.99375 3.5 0.0
2.0625 3.5 0.0
2.13125 3.5 0.0
2.2 3.56430812579 0.0
2.2 3.6227083524 0.0
2.2 3.67574343203 0.0
2.2 3.72390623714 0.0
2.2 3.76764438299 0.0
2.2 3.80736436348 0.0
2.2 3.84343531161 0.0
2.2 3.87619247056 0.0
2.2 3.90594026646 0.0
2.2 3.93295517223 0.0
2.2 3.9574882542 0.0
2.2 3.97976750927 0.0
2.18000003888 4.0 0.0
2.15999995974 4.0 0.0
2.13999995594 4.0 0.0
2.12000003893 4.0 0.0
2.0999999813 4.0 0.0
2.07999993507 4.0 0.0
2.06000001965 4.0 0.0
2.04000002354 4.0 0.0
2.01999993997 4.0 0.0
1.99999999426 4.0 0.0
1.98000004623 4.0 0.0
1.95999996625 4.0 0.0
1.93999996787 4.0 0.0
1.92000005069 4.0 0.0
1.90000001292 4.0 0.0
1.87999994967 4.0 0.0
1.86000003245 4.0 0.0
1.84000003166 4.0 0.0
1.81999995194 4.0 0.0
1.80000002065 4.0 0.0
1.78000005962 4.0 0.0
1.75999997703 4.0 0.0
1.73999998149 4.0 0.0
1.72000006236 4.0 0.0
1.70000000651 4.0 0.0
1.67999995967 4.0 0.0
1.66000004242 4.0 0.0
1.64000004304 4.0 0.0
1.61999996152 4.0 0.0
1.6000000096 4.0 0.0
1.58000006667 4.0 0.0
1.55999998704 4.0 0.0
1.53999998381 4.0 0.0
1.52000006764 4.0 0.0
1.5000000299 4.0 0.0
1.47999996242 4.0 0.0
1.46000004337 4.0 0.0
1.4400000454 4.0 0.0
1.41999996386 4.0 0.0
1.40000002834 4.0 0.0
1.38000006734 4.0 0.0
1.35999998576 4.0 0.0
1.33999998537 4.0 0.0
1.32000006658 4.0 0.0
1.30000001585 4.0 0.0
1.27999996279 4.0 0.0
1.26000004759 4.0 0.0
1.24000004493 4.0 0.0
1.2199999616 4.0 0.0
1.20000000906 4.0 0.0
1.18000006792 4.0 0.0
1.15999998616 4.0 0.0
1.13999999119 4.0 0.0
1.12000007157 4.0 0.0
1.1 4.0 0.0
1.07999992843 4.0 0.0
1.06000000881 4.0 0.0
1.04000001384 4.0 0.0
1.01999993209 4.0 0.0
0.999999990948 4.0 0.0
0.98000003841 4.0 0.0
0.959999955072 4.0 0.0
0.939999952416 4.0 0.0
0.920000037214 4.0 0.0
0.899999984154 4.0 0.0
0.879999933427 4.0 0.0
0.860000014636 4.0 0.0
0.840000014246 4.0 0.0
0.819999932662 4.0 0.0
0.79999997166 4.0 0.0
0.780000036145 4.0 0.0
0.759999954604 4.0 0.0
0.73999995663 4.0 0.0
0.72000003758 4.0 0.0
0.699999970103 4.0 0.0
0.679999932361 4.0 0.0
0.660000016189 4.0 0.0
0.640000012962 4.0 0.0
0.61999993333 4.0 0.0
0.599999990406 4.0 0.0
0.58000003848 4.0 0.0
0.559999956964 4.0 0.0
0.539999957581 4.0 0.0
0.520000040329 4.0 0.0
0.499999993489 4.0 0.0
0.479999937647 4.0 0.0
0.460000018512 4.0 0.0
0.440000022972 4.0 0.0
0.419999940378 4.0 0.0
0.399999979352 4.0 0.0
0.380000048063 4.0 0.0
0.359999968347 4.0 0.0
0.339999967553 4.0 0.0
0.320000050328 4.0 0.0
0.299999987077 4.0 0.0
0.279999949312 4.0 0.0
0.260000032129 4.0 0.0
0.240000033752 4.0 0.0
0.219999953776 4.0 0.0
0.200000005737 4.0 0.0
0.180000060031 4.0 0.0
0.159999976465 4.0 0.0
0.139999980354 4.0 0.0
0.120000064926 4.0 0.0
0.100000018697 4.0 0.0
0.0799999610675 4.0 0.0
0.0600000440571 4.0 0.0
0.0400000402596 4.0 0.0
0.0199999611169 4.0 0.0
0.0 3.97976750927 0.0
0.0 3.9574882542 0.0
0.0 3.93295517223 0.0
0.0 3.90594026646 0.0
0.0 3.87619247056 0.0
0.0 3.84343531161 0.0
0.0 3.80736436348 0.0
0.0 3.76764438299 0.0
0.0 3.72390623714 0.0
0.0 3.67574343203 0.0
0.0 3.6227083524 0.0
0.0 3.56430812579 0.0
0.249757963562 3.75212589829 0.0
1.94999996706 3.74954522137 0.0
0.488710285893 3.75947702441 0.0
0.726520490699 3.7655965719 0.0
0.967283134849 3.7597072979 0.0
1.20619032017 3.75831098673 0.0
1.45842774915 3.76733088374 0.0
1.69012076678 3.7622332834 0.0
0.130754044069 3.86878249167 0.0
2.06924595593 3.86878249167 0.0
1.8299999918 3.84622455633 0.0
1.56816462369 3.85034872999 0.0
0.369913859351 3.84868157925 0.0
0.608733620231 3.84706187144 0.0
1.33069778866 3.84790908234 0.0
0.84323446252 3.84762979148 0.0
1.08873170817 3.84705870913 0.0
0.250539365135 3.87785524304 0.0
1.94967747948 3.87849609822 0.0
1.73218750075 3.8916046151 0.0
0.468661874066 3.89189322974 0.0
1.47574192429 3.89639134117 0.0
0.704258110321 3.8963912684 0.0
1.18331258449 3.8976320365 0.0
0.949999953744 3.89208018478 0.0
1.64795374468 3.91749779939 0.0
0.548928463645 3.91905583847 0.0
1.38619509199 3.91928594438 0.0
0.788926872841 3.91906062101 0.0
1.27071160784 3.91777932845 0.0
1.02999997296 3.91685174433 0.0
1.81733541416 3.69950870754 0.0
1.86999999106 3.91823503401 0.0
0.071252620538 3.93011431841 0.0
2.12874737946 3.93011431841 0.0
2.07400690796 3.74293885365 0.0
0.125993092043 3.74293885365 0.0
0.32995676804 3.92118147353 0.0
2.00999996712 3.92542383197 0.0
0.190000032884 3.92542383197 0.0
1.56698738743 3.72218882919 0.0
1.33000000474 3.72531695685 0.0
0.848014510843 3.71986098938 0.0
1.09024665585 3.72285801424 0.0
0.610276609989 3.72290563624 0.0
1.54999998543 3.92414142844 0.0
0.629999973146 3.92414137652 0.0
0.869999974031 3.92414141814 0.0
1.11000003579 3.92414141267 0.0
1.79030638642 3.92649353654 0.0
0.370434802927 3.72513294336 0.0
0.410903135411 3.92892991244 0.0
1.33000002597 3.93737911571 0.0
0.129927648482 3.94112154503 0.0
2.07007235152 3.94112154503 0.0
1.93000000928 3.93875927586 0.0
0.26999999072 3.93875927586 0.0
1.40966706061 3.83880068991 0.0
0.770332962441 3.83880062149 0.0
1.24904900022 3.84293377683 0.0
1.01033287484 3.83880060723 0.0
0.530342681434 3.83880307444 0.0
0.189895273961 3.63486992823 0.0
2.00989835291 3.62845703161 0.0
0.998888153878 3.61665036233 0.0
1.47894673873 3.61675180774 0.0
0.51733910646 3.62937665489 0.0
0.705112628302 3.618743723 0.0
1.66672137035 3.63168728155 0.0
1.18508242495 3.61871739348 0.0
1.71000003443 3.94408608591 0.0
0.489999965568 3.94463856597 0.0
1.44983363802 3.94422347836 0.0
0.729999997105 3.94465012565 0.0
1.21016639734 3.94422345842 0.0
0.928621800545 3.94440037102 0.0
2.00626203014 3.81543543551 0.0
0.193627962274 3.81528928332 0.0
1.66628164144 3.83559795895 0.0
1.75661718781 3.81065958113 0.0
1.61143779865 3.94859227761 0.0
0.991673865748 3.95161238438 0.0
0.0604617941233 3.86281264864 0.0
2.13953820588 3.86281264865 0.0
0.300965570716 3.8114148258 0.0
0.2970894797 3.66361086085 0.0
0.398842167194 3.60449226805 0.0
1.51000004877 3.95218393067 0.0
1.90135619383 3.81213273629 0.0
0.669405272842 3.95495208979 0.0
1.07142780558 3.94866325309 0.0
0.592085094025 3.94901139323 0.0
0.831051660929 3.94633985879 0.0
1.14940528892 3.9549521224 0.0
0.44409344258 3.82719938178 0.0
1.49646539728 3.82376850413 0.0
0.683434082651 3.82631713605 0.0
0.92337834777 3.8234861632 0.0
1.16343437877 3.82631615351 0.0
1.90749084149 3.65350700271 0.0
1.8278758005 3.95083911942 0.0
0.37243073327 3.95235211027 0.0
1.29345662549 3.60569899261 0.0
0.813407949226 3.60572380122 0.0
1.29317153636 3.96216077293 0.0
1.367704599 3.96055764734 0.0
1.97071235041 3.96038324024 0.0
0.22928764959 3.96038324024 0.0
2.10610581798 3.66047411138 0.0
0.0938941820177 3.66047411138 0.0
1.67000000105 3.95862953468 0.0
1.74869816704 3.96079301687 0.0
0.531976761939 3.96138655466 0.0
0.451361042387 3.96112774725 0.0
0.771976832233 3.96138887156 0.0
1.88843481911 3.95881554986 0.0
1.61277513709 3.78538823015 0.0
2.13311214501 3.79435403671 0.0
0.0668878549946 3.79435403671 0.0
1.76678797151 3.60286552601 0.0
0.311702446283 3.9611157379 0.0
1.02877762737 3.96159282031 0.0
1.40830122607 3.96143175203 0.0
1.25214210333 3.957355862 0.0
1.59476493393 3.9048774062 0.0
1.56950979124 3.96148017208 0.0
0.890017020275 3.96125792969 0.0
2.03089110475 3.96040268709 0.0
0.169108895255 3.96040268709 0.0
0.939722125942 3.68539157065 0.0
1.41686981874 3.69192854313 0.0
0.0426348006718 3.96101756902 0.0
2.15736519933 3.96101756902 0.0
1.36077308019 3.79177204211 0.0
0.817982383499 3.78962669257 0.0
1.05834720932 3.78780184893 0.0
0.578349529346 3.78781530011 0.0
1.77992711518 3.87652731382 0.0
0.417982153133 3.87594990465 0.0
1.84363633012 3.77741329286 0.0
1.52244994479 3.87704541475 0.0
0.657426528912 3.87734838249 0.0
1.13742651778 3.87734834025 0.0
0.898116026439 3.8800466833 0.0
1.56984259435 3.64465823131 0.0
1.08983016076 3.6446495206 0.0
0.609942357805 3.64483976081 0.0
1.29451769374 3.79627773068 0.0
0.0893439668432 3.96574839433 0.0
2.11065603316 3.96574839433 0.0
2.01422398896 3.86980625824 0.0
0.185776011038 3.86980625824 0.0
0.305957237756 3.87340573745 0.0
1.72977480551 3.68665973332 0.0
1.25418096296 3.69351129461 0.0
0.629999973146 3.96272981435 0.0
1.11000003579 3.96272983221 0.0
0.772975283819 3.69297597031 0.0
1.89089074715 3.86951346173 0.0
0.445448577516 3.69456159386 0.0
1.82621986864 3.89678318705 0.0
2.07135424223 3.81165410377 0.0
0.128645757768 3.81165410377 0.0
0.373320289473 3.89968791662 0.0
1.79000004014 3.96541718891 0.0
0.383302070088 3.78976392323 0.0
0.409457623385 3.96502881851 0.0
1.55531527123 3.78787141386 0.0
1.34861332978 3.89383287415 0.0
0.593245985735 3.89483466551 0.0
0.833245353375 3.89479604398 0.0
1.0732444554 3.8948349405 0.0
0.911896623122 3.59194725763 0.0
0.187580554011 3.70699710313 0.0
2.01241944599 3.70699710313 0.0
1.39201907571 3.59233063354 0.0
2.09635520798 3.90516200201 0.0
0.103644792024 3.90516200201 0.0
1.89086147526 3.72621461413 0.0
1.02102684616 3.70044819701 0.0
1.49813234221 3.70194667869 0.0
0.53965669049 3.70593418829 0.0
1.63719578665 3.69772473547 0.0
0.685447658936 3.70127585046 0.0
1.16541741817 3.70128744764 0.0
0.901649266036 3.76287226775 0.0
0.992351690321 3.90662993531 0.0
1.69131894868 3.90657323657 0.0
1.9699561555 3.91599371502 0.0
0.230043844497 3.91599371502 0.0
1.61980840676 3.85005402918 0.0
2.04685187594 3.90639759008 0.0
0.153148124058 3.90639759008 0.0
0.512139828486 3.90538520837 0.0
1.43057458921 3.90702644399 0.0
0.749149996349 3.90689574876 0.0
[...]
POINT_DATA 1163
VECTORS Displacement float
0.0 0.0 0
0.0 0.0 0
0.011466617127 -0.0014585817741 0
-0.00918042257044 -0.00198043521163 0
0.0 0.0 0
0.0 0.0 0
0.0 0.0 0
0.0 0.0 0
0.0 0.0 0
0.0 0.0 0
0.0 0.0 0
0.0 0.0 0
0.0 0.0 0
0.0 0.0 0
0.0 0.0 0
0.0 0.0 0
0.0 0.0 0
0.0 0.0 0
0.0 0.0 0
0.0 0.0 0
0.0 0.0 0
0.0 0.0 0
0.0 0.0 0
0.0 0.0 0
0.0 0.0 0
0.0 0.0 0
0.0 0.0 0
0.0 0.0 0
0.0 0.0 0
0.0 0.0 0
0.0 0.0 0
0.0 0.0 0
0.0 0.0 0
0.0 0.0 0
0.0 0.0 0
0.00473666213191 -0.00342602659941 0
0.00826068924565 -0.0043368902384 0
0.0108240610839 -0.00427640980879 0
0.0122802328864 -0.00376352270697 0
0.0130077637922 -0.00316278059407 0
0.0132333961256 -0.0025821130311 0
0.0130982479901 -0.00213573471791 0
0.0128499785658 -0.00181004552963 0
0.0125116092673 -0.00160164491518 0
0.0121803233702 -0.0015063725777 0
0.0118935212358 -0.00146572333805 0
0.0116595644401 -0.00145707121878 0
0.011468156792 -0.00164581128772 0
0.0114653539886 -0.00181241051379 0
0.0114426242083 -0.00195849932575 0
0.0113892266861 -0.0020887613023 0
0.0112982792653 -0.0022154012539 0
0.0111658096913 -0.00235876333776 0
0.0109819507041 -0.00251746519914 0
0.0107566122983 -0.00272993432287 0
0.0104749982058 -0.00298653007676 0
0.0101599232674 -0.00332275716039 0
0.00977833678067 -0.00373262812191 0
0.00935259409761 -0.00425619749564 0
0.00889783521515 -0.00490076820131 0
0.00837983850248 -0.00567252989653 0
0.00784618898536 -0.00660314973446 0
0.0072431220924 -0.00769668175364 0
0.0066088932719 -0.00899912631087 0
0.00594412764461 -0.010504962038 0
0.00525419263198 -0.012278255665 0
0.00449123887231 -0.0143324011577 0
0.00375196758371 -0.0167210955536 0
0.00305612139855 -0.0194630838808 0
0.0023014960768 -0.0226355616576 0
0.00162309246622 -0.0262956140065 0
0.000932121249387 -0.0306343365989 0
0.000533884067315 -0.0356379520391 0
0.00035390603817 -0.0416520191894 0
0.000642240167317 -0.0491377351919 0
0.00232034500234 -0.0590159300179 0
0.00398661693412 -0.0682161484863 0
0.00556358821811 -0.0770232146094 0
0.00713785682316 -0.0851686411963 0
0.00839050039867 -0.0929192259731 0
0.00939887799961 -0.100217240836 0
0.0101254688719 -0.10708803433 0
0.0106142851916 -0.113490347155 0
0.0108525048061 -0.119423731383 0
0.0108755003795 -0.124944605843 0
0.0106292440201 -0.129987283097 0
0.0101699115093 -0.134533083757 0
0.00951201963584 -0.138583886641 0
0.00867409498223 -0.142125012133 0
0.00764738783991 -0.145144158114 0
0.00647322785546 -0.147634126236 0
0.00517735897634 -0.149583806777 0
0.00375241093691 -0.150989314156 0
0.00222226877549 -0.151833878246 0
0.000520255134309 -0.152069510035 0
-0.00105305192161 -0.151843167783 0
-0.00255823819033 -0.151036250028 0
-0.00394723560027 -0.149662604951 0
-0.00521070055622 -0.147739972819 0
-0.00634895852982 -0.145282181777 0
-0.00735866955373 -0.142295120622 0
-0.00819193626039 -0.138786190655 0
-0.00881756998496 -0.13477284796 0
-0.00924968018658 -0.130261129742 0
-0.0094688091743 -0.125258963952 0
-0.00941630934553 -0.119798618232 0
-0.009189481169 -0.113836826891 0
-0.00871178853699 -0.107473990631 0
-0.00791857554486 -0.100667949077 0
-0.0068569958805 -0.0934245130217 0
-0.00551609961725 -0.0857446699728 0
-0.0040642119163 -0.0776125036543 0
-0.00230013958768 -0.0689422746543 0
-0.000529812767714 -0.0598446238728 0
0.00121446285827 -0.0500863402771 0
0.00190931638311 -0.0422043578867 0
0.00186116135488 -0.0359550614558 0
0.00143473333825 -0.0307279410966 0
0.000936987079649 -0.026305237508 0
0.000411944612555 -0.0224854235995 0
-0.000234537667248 -0.0191636157842 0
-0.000865679061782 -0.0163040813819 0
-0.00149964203602 -0.0138186931455 0
-0.0021284230823 -0.0116421611187 0
-0.00273159607665 -0.0097433646761 0
-0.00327937642537 -0.00808654984166 0
-0.00383511044231 -0.00665446440217 0
-0.00433882724183 -0.00541471553844 0
-0.00481720843827 -0.00436267597579 0
-0.00524533264743 -0.00345489668961 0
-0.00565649311764 -0.00267499544826 0
-0.00602316571316 -0.00200953039708 0
-0.00637952394955 -0.00145861351664 0
-0.00669050073928 -0.000997927809143 0
-0.00697967240175 -0.000631559515772 0
-0.00723090269076 -0.000326472045649 0
-0.00747126390601 -9.16940230843e-05 0
-0.00769386682188 8.26626300687e-05 0
-0.00788580743111 0.000208304444683 0
-0.00806304007254 0.000282024008321 0
-0.00822091668282 0.000319096097422 0
-0.00836655564685 0.00031682148935 0
-0.0084922887695 0.000284802018261 0
-0.00860998703555 0.000220641534472 0
-0.00871168212656 0.000132784103392 0
-0.00880507254961 2.00086495826e-05 0
-0.00888830670013 -0.000115712272941 0
-0.00895678301691 -0.000266667967254 0
-0.00901822056484 -0.000434695453631 0
-0.00906783327885 -0.000612744105734 0
-0.00910900429001 -0.000803292681079 0
-0.00913923469658 -0.00099849300124 0
-0.00916065079914 -0.0011986195328 0
-0.00917373716351 -0.00139928197899 0
-0.00917962865184 -0.00159729107131 0
-0.00918070484535 -0.00179123190703 0
-0.00898999640136 -0.00198016333888 0
-0.00878513874067 -0.00198274995815 0
-0.00856540168578 -0.00199304929494 0
-0.00832452010059 -0.00201641872093 0
-0.00804937499058 -0.00206551630517 0
-0.00771002680051 -0.00213913956434 0
-0.00729647262308 -0.00223380592246 0
-0.0067353707797 -0.00234800406161 0
-0.00598833762868 -0.00243779997714 0
-0.00498343368744 -0.00244531956632 0
-0.00362533817406 -0.00224876333414 0
-0.00199671802451 -0.00164103398509 0
-0.00736815795241 -6.04400730768e-05 0
0.0150835067273 -0.00398933777843 0
-0.0113965151864 -0.00199279627457 0
-0.0187582687277 -0.0165800304544 0
-0.0187134504727 -0.0499938203588 0
-0.00229525632592 -0.06958531122 0
0.0174697646658 -0.0586713412242 0
0.0219549126822 -0.0239813959241 0
-0.00805382392757 -0.000682315393568 0
0.0131854768495 -0.00232628456848 0
0.0167678892854 -0.0107725505425 0
0.0218942742726 -0.0570490947784 0
-0.00909470572694 0.000115553225087 0
-0.0131599086513 -0.00704126582121 0
0.00854680160064 -0.0950446105394 0
-0.0203730428813 -0.0411101695566 0
-0.0119239787305 -0.0890329584018 0
-0.00835242752062 0.0002144289999 0
0.0135952847711 -0.00422367276924 0
0.0169243310378 -0.0233671359956 0
-0.00937472174405 -0.00106140589529 0
0.017372424341 -0.088261561154 0
-0.0129154116689 -0.0165751137781 0
-0.00412144041263 -0.11373212734 0
-0.0178029034971 -0.0747330774436 0
0.0173496951567 -0.0436140450747 0
-0.00895092934528 -0.00361031675531 0
0.0118678884244 -0.111553340545 0
-0.0135217408257 -0.0324509492953 0
0.00325653315393 -0.121672167117 0
-0.0138926765269 -0.0995144181824 0
0.0172890731572 -0.00899117781507 0
0.0123570866976 -0.00792828284165 0
-0.00854356899409 -0.00128253221551 0
0.0122261859724 -0.002021551725 0
0.013214820622 -0.0023456217108 0
-0.00647883999271 -0.00076924475455 0
-0.0084721034168 0.000394334370181 0
0.0120656256324 -0.00291070430259 0
-0.0084738147065 -0.000142674839356 0
0.0205401138439 -0.0355333899375 0
0.00778318530489 -0.0578215447468 0
-0.0199605866328 -0.0275793007775 0
-0.0109596436278 -0.053827773579 0
-0.0146157330799 -0.00641124833643 0
0.0176403356534 -0.0751672479234 0
-0.00920824724406 -0.00860305380562 0
-0.0156137664185 -0.0565968115043 0
-0.00931596846715 -0.115626354967 0
0.0123454721252 -0.0150836021712 0
-0.00857535539557 -0.000417854397144 0
-0.00841547597235 -7.82247032884e-05 0
0.00774874601087 -0.124591829326 0
-0.00860715642555 -0.000682754000886 0
0.011920914638 -0.00231862129589 0
0.0113160575449 -0.00494668845657 0
-0.00846393600038 0.000325249817968 0
0.0146453604722 -0.0840349169777 0
-0.018845651161 -0.025819786972 0
0.00147918601287 -0.0967284125294 0
-0.0169370008946 -0.0750056788419 0
-0.0115482566357 -0.00306973170213 0
-0.00430861939802 -0.000362309547535 0
0.00965385143115 -0.00199455434679 0
-0.0111059410062 -0.0228166430484 0
0.0116511867911 -0.0228375886791 0
-0.00894232207448 -0.00227226719795 0
-0.0126177418921 -0.00762833495407 0
0.0155066604189 -0.0141373991585 0
-0.00278484196903 -0.0291760157602 0
0.0116659052452 -0.0281401921092 0
-0.00791725189626 -0.00153842113292 0
0.0140848402505 -0.106810601925 0
-0.00836992695605 -0.0206067595779 0
-0.00175362087684 -0.131095677885 0
-0.0139523444676 -0.0790867092809 0
0.0142295914393 -0.0029470963286 0
-0.00772665654466 -0.000191690361096 0
0.0220208301316 -0.0334994836721 0
0.0201077315743 -0.0178617446289 0
0.0144060705746 -0.0581945572793 0
-0.0130363580984 -0.0994408541862 0
-0.00794586768244 -0.00142956802504 0
0.0131015225868 -0.00215116166393 0
-0.00842794333649 0.000171696931518 0
-0.006142421151 -0.000299947788178 0
-0.00561963824079 -0.000813313032767 0
0.0147753319756 -0.0930155396359 0
0.0160190849092 -0.00604791646801 0
-0.00667917772585 -0.012387563467 0
-0.0108431106544 -0.117099216191 0
-0.00735480798231 -0.00589670320361 0
-0.0115192088239 -0.045383672456 0
-0.00623998296831 -0.130660481518 0
-0.0101948452499 -0.000795096033857 0
0.0199653757192 -0.0664509652952 0
-0.016296451764 -0.0134251452987 0
-0.0205186119181 -0.0552072447942 0
-0.00607334054484 -0.089245758129 0
0.0129113954764 -0.00412495932748 0
0.00996882953344 -0.0112099326427 0
-0.00817938531585 0.000240460252332 0
0.00298516249008 -0.0257031454619 0
-0.0128773450856 -0.0115253073981 0
0.00482403661112 -0.136302662915 0
0.00984428609887 -0.127632531925 0
0.0107912752879 -0.00375322452534 0
-0.00858358730902 0.000120115181856 0
0.0103560712431 -0.00213532003418 0
-0.00461670244615 -0.000934242357918 0
0.0104987881977 -0.0383994122408 0
0.00861950155073 -0.0209147243668 0
-0.00704351402715 -0.00293296854377 0
-0.00765227366782 -0.000692947086298 0
-0.00659114905235 -0.028773244253 0
0.00991733699268 -0.00691402821792 0
0.0228898332927 -0.0382801849148 0
0.0134422352336 -0.00241354890449 0
-0.0071740169497 -0.00139423274912 0
0.012179831532 -0.00691275160295 0
-0.00834114730237 0.000392476113357 0
-0.0117715906953 -0.111639424283 0
0.0118448768947 -0.120811727466 0
0.00161457476517 -0.136196190932 0
0.0194735120499 -0.0583864005808 0
0.0133491002792 -0.0753980634178 0
-0.0111095801779 -0.0683881385515 0
0.0113417844316 -0.00269585326683 0
-0.00870169886922 -0.00032566111509 0
-0.017115300578 -0.0322359104328 0
0.0128742532405 -0.0437431875658 0
-0.00881547943718 -0.00157121159335 0
0.0118462562679 -0.00183337316681 0
0.0109535562254 -0.0754237558005 0
-0.0210077250025 -0.0307576947269 0
-0.014133047365 -0.068547597573 0
-0.0137329579284 -0.00520127743994 0
0.0166048998368 -0.0161504918148 0
-0.00927220197449 -0.000240077326316 0
0.0178615087281 -0.00903765215702 0
0.0198795858103 -0.0729232515766 0
-0.0129315069165 -0.0111195087921 0
-0.0079869968715 -0.10358943101 0
-0.0192558853903 -0.0589426744394 0
0.0160359756713 -0.0225154920399 0
-0.00868906540811 -0.0334551126194 0
-0.011925659593 -0.00492730109163 0
0.00543965762507 -0.080736812312 0
-0.00883624522296 -0.00109544607089 0
0.0116946984458 -0.00210762560945 0
0.0133923066348 -0.00282135853422 0
-0.00814715437797 -0.000194788246087 0
-0.00856607118169 0.000350788459037 0
0.0187122440277 -0.0144109152075 0
0.00151179511444 -0.0504880944103 0
-0.00613105887879 -0.00866457597704 0
-0.00856247635775 -0.128172670738 0
-0.0182424906577 -0.0169090663123 0
0.0146015512316 -0.00664799500625 0
-0.00954555063058 -0.00130200990827 0
0.0141951271762 -0.0112810992908 0
0.0137091512037 -0.00235973085049 0
-0.00748036393145 -0.000723894689105 0
-0.00871615637817 0.000217791658843 0
0.00822189717525 -0.0152115965548 0
-0.00934208988898 -0.000223296928966 0
-0.00784579724625 -9.00312973038e-05 0
0.0219255181245 -0.0486026348083 0
0.00965599332719 -0.108213310439 0
-0.0106009385066 -0.00597910095698 0
-0.0174791724592 -0.0428613998494 0
-0.0122439311296 -0.101133855575 0
-0.0110339921449 -0.0142924059599 0
-0.006072146576 -0.000358926546086 0
0.0130620544531 -0.00259583579601 0
0.00689232802204 -0.020550161952 0
0.0125889190006 -0.00217144659217 0
-0.00833780358127 -0.000946251136678 0
0.0160885703171 -0.00581309375447 0
-0.0145470391039 -0.0427759511586 0
0.0174719388894 -0.0392994853923 0
-0.0121491679958 -0.00337725241811 0
0.0201838712634 -0.0240242085406 0
-0.0164244173823 -0.0104571153008 0
-0.00520474162939 -0.0515565780457 0
-0.0207290971569 -0.0410064794041 0
-0.0157868307307 -0.0884474698397 0
0.0168920216693 -0.0317816843997 0
0.0122890250707 -0.00368470681585 0
-0.00843557536826 0.00013242939498 0
0.0222181887443 -0.0448913203662 0
0.0125525590909 -0.0024727236499 0
-0.00835635569662 -0.000461271479589 0
-0.00929426336295 -0.00222297214755 0
0.0147924738956 -0.100364807366 0
-0.0133912653732 -0.0237995668931 0
-0.000336430068927 -0.119693795375 0
0.0125403565457 -0.00263387307572 0
-0.00605786789733 -0.00142555384523 0
-0.0117337645441 -0.0928660973032 0
-0.00828727510608 -0.00161485578127 0
0.0126300165328 -0.00194898265335 0
0.0133357771767 -0.105774739044 0
-0.00526502092618 -0.0163809045745 0
-0.00384817802186 -0.137678428663 0
-0.00810227142475 0.000110792574973 0
-0.00808992179777 -6.08053293833e-05 0
0.00469005734783 -0.105273192851 0
0.014780997819 -0.0040824453398 0
0.0074363739833 -0.134261826655 0
0.0199089670952 -0.0147270675795 0
-0.00966177240697 -0.0715629050697 0
-0.0157416708937 -0.00879577828703 0
0.0159030736661 -0.0953600511454 0
-0.00951307545237 -0.0157490583197 0
-0.00437961201136 -0.124593061493 0
0.0101632640388 -0.0495112952944 0
-0.0213512154169 -0.0412174263778 0
0.00914404552247 -0.00359978943375 0
0.0101392437116 -0.00504459071756 0
-0.00848331632543 0.000308054918762 0
-0.00652433263514 -0.00417240209348 0
-0.00629830426982 -0.0353606627933 0
0.0133018930846 -0.0858011208555 0
-0.00947878682771 -0.0578153198504 0
0.00894483224331 -0.0085560449719 0
0.0115094752576 -0.00235434765239 0
-0.0087953228552 -0.000687188702477 0
-0.0082048301122 0.000356432926993 0
0.0203883064843 -0.0241746686579 0
0.0108651917788 -0.0032048656731 0
-0.00868211453987 -6.90830124106e-05 0
-0.0105542345969 -0.00152547907167 0
0.0176907206113 -0.078608492666 0
-0.0168770144941 -0.0185090544154 0
-0.00298642439858 -0.0955414418859 0
-0.0190099274852 -0.0675729276052 0
0.00785496799087 -0.00224092267924 0
-0.00304184880662 -0.000315717712268 0
0.0140102987722 -0.0204967424619 0
-0.0150510200323 -0.0865757672833 0
-0.00866546326272 -0.000633484267878 0
0.00623106188974 -0.116230297947 0
-0.0180721751134 -0.0327207060103 0
-0.0148584388503 -0.0883800872256 0
-0.0111032243295 -0.00411633672494 0
-0.00234038727424 -0.000406435360925 0
0.00573005975833 -0.00122899432796 0
-0.00367499323201 -0.000454252328797 0
0.012807707059 -0.00604028064259 0
-0.0084877179985 0.000378578462245 0
0.0198090603271 -0.0521910518327 0
0.0124528605578 -0.097107254282 0
-0.0170469127196 -0.0669705382172 0
-0.0100006759975 -0.000939751673915 0
0.0176527381969 -0.0829661625976 0
-0.0101922573185 -0.011884604701 0
-0.00698673248856 -0.117339185032 0
0.0134350892653 -0.00227050738316 0
-0.00772416948174 -0.00101404043025 0
0.00758644930185 -0.0283053391879 0
0.0168533068512 -0.068610688467 0
0.0139852266349 -0.00261762395788 0
-0.00708610741858 -0.000402546323169 0
-0.007136531538 -0.00159881111419 0
0.0130326711953 -0.111983179173 0
-0.00531399084178 -0.0199562296807 0
-0.0111338296479 -0.0850723719495 0
-0.00202483383147 -0.138846082905 0
0.00280401941049 -0.0656014143718 0
0.020444744468 -0.0366056874382 0
0.0133348082918 -0.00236760519966 0
-0.00748556073299 -0.00170239679456 0
0.0124054916446 -0.0556691261894 0
0.00846586085262 -0.00781108984418 0
0.0188569825873 -0.0126988381685 0
-0.00330375972136 -0.0140742846559 0
0.00700721501435 -0.039577674621 0
-0.00695579622054 -0.00325806210354 0
-0.0170766093703 -0.0209324610404 0
-0.0060506228776 -0.000222688937617 0
-0.0199845311398 -0.0219526331489 0
-0.00887252774251 0.000128048101431 0
0.0206178613648 -0.0631604779455 0
-0.00504974443218 -0.00108814766886 0
-0.0025607538325 -0.00100147647063 0
0.0061050794785 -0.00202803464999 0
0.011722303771 -0.00197198040686 0
-0.00888077942266 -0.0013498295285 0
0.0145027479723 -0.00854655469229 0
6.6087820237e-07 -0.0183001359106 0
-0.00943701679137 -0.00640836437181 0
-0.00853979779215 -0.00169828650963 0
0.0122409086924 -0.00180084297312 0
-0.00651425233212 -0.00206335003393 0
0.0134336944566 -0.00362789408417 0
-0.00721393586765 -0.000562828405473 0
-0.00699736511706 -0.0159555764926 0
0.00935243636167 -0.0136154071261 0
-0.0123256655196 -0.00302175132643 0
-0.00868630056107 0.000330200578887 0
0.0157556255928 -0.0671391948425 0
-0.0172433725994 -0.061387665079 0
0.00962397906215 -0.06214905142 0
-0.0111132996767 -0.105080037418 0
0.00981172113164 -0.116494562296 0
0.0136940467259 -0.00254138278034 0
-0.00787402150993 -0.000416983702256 0
0.00938053492899 -0.00626540752189 0
0.00139436899977 -0.078992015642 0
-0.0104927886746 -0.120879785418 0
-0.0198372153553 -0.0217177903391 0
-0.0200464587508 -0.0326917682855 0
-0.0149049655702 -0.0823614649732 0
-0.0121474338278 -0.00448368952358 0
0.011887105191 -0.0883550518334 0
0.0105395934728 -0.129564502881 0
0.00293263374438 -0.143147676457 0
0.0139712913628 -0.00589411291709 0
0.0121053075763 -0.00214550066634 0
-0.00857410066152 -0.000977851322143 0
-0.00563704498528 -0.00689097441502 0
-0.00500098993299 -0.0108421209584 0
-0.00952147961186 -0.126573555312 0
-0.0070175411953 -0.135012490525 0
-0.00563848692367 -0.000687190785226 0
0.0121948339918 -0.00221387777187 0
0.0219042839379 -0.0260029447799 0
0.0125912677684 -0.00206354450835 0
-0.00832741958541 -0.00127606974246 0
0.0161125168436 -0.00748060872599 0
0.0119117941328 -0.0996316714118 0
-0.00373855919532 -0.0459029538372 0
-0.0172976115565 -0.0124853305008 0
-0.00613105867591 -0.0743224321707 0
0.00773986594997 -0.0126756954826 0
0.00207775509467 -0.10570735398 0
-0.00788979229087 0.000107076028294 0
-0.00892175505278 -0.00172530732465 0
0.011730851128 -0.00170824213877 0
-0.0184533431104 -0.0515966556525 0
-0.0101632540187 -0.104375293008 0
-0.0114215698524 -0.00831174650181 0
-0.0081749520006 3.85552531818e-05 0
0.0166663391642 -0.00641980719969 0
0.0136839851253 -0.0034027260756 0
0.0119839316862 -0.00250418735199 0
-0.00853883614549 -0.000442227729993 0
0.0118923890742 -0.00979313040514 0
0.00652237506933 -0.0177626641998 0
-0.00749007353862 -0.0003801838931 0
0.0226999792794 -0.0317080474826 0
0.0211988188806 -0.0628495681396 0
-0.0146075744847 -0.00982774599422 0
-0.0209257046418 -0.0495519207204 0
-0.00924113742709 -0.0896009990606 0
-0.00956641001409 -0.000234377094171 0
-0.0174066571215 -0.0783494053593 0
-0.0111029288067 -0.0016455428459 0
0.015732300145 -0.0896004316392 0
-0.0104407869114 -0.00223087319495 0
-0.0165602712677 -0.0233855067554 0
0.0127716828454 -0.00315480738778 0
0.0180019744511 -0.0675911126826 0
-0.008344493102 -3.83904658755e-05 0
-0.0182479246961 -0.017199316589 0
-0.0194433716898 -0.0580908500633 0
-0.00286728455433 -0.0831918881542 0
0.0177816117036 -0.0526751933209 0
0.0203577771489 -0.0458638823433 0
-0.0087986752663 -0.00489611315357 0
-0.0139592391428 -0.039505586561 0
-0.0123525781363 -0.106502004199 0
0.00847650911321 -0.136319776146 0
0.00598275635801 -0.14087829174 0
0.0190658843856 -0.0770490411123 0
-0.0147722887862 -0.0146381098661 0
-0.00545934749809 -0.102257091544 0
-0.0194123270498 -0.0650963074512 0
0.00984421663517 -0.00445000709803 0
-0.00858165065062 0.000217277602973 0
-0.00841704651172 0.000331787190452 0
0.0221694183782 -0.0285442190109 0
0.0134116760931 -0.110006813756 0
0.000383528251348 -0.128625553656 0
0.0184660344031 -0.0203019589089 0
0.00916875135338 -0.00591176908221 0
-0.00488882207539 -0.0135601338495 0
-0.00540144760632 -0.137350390648 0
0.0148177396142 -0.00351722576636 0
-0.00767006030101 -4.62434990627e-05 0
-0.0152280653512 -0.0552239826869 0
-0.00803641686137 -0.00169712506779 0
0.0129545603058 -0.0020444196232 0
-0.00878671079236 0.000266179411734 0
-0.0132088399846 -0.00414537745197 0
-0.00841555821774 0.000343240362758 0
-0.00980610688003 -0.000786135618984 0
0.0125594497507 -0.00440557892411 0
-0.00843607562173 0.000268872528014 0
0.0189781053167 -0.0309992987922 0
-0.00224578306588 -0.000261034715605 0
0.00558963016033 -0.00122322371083 0
-0.00837702974946 0.000257251061961 0