# vtk DataFile Version 2.0
Generated with Solid Solver
ASCII
DATASET UNSTRUCTURED_GRID
POINTS 1163 float 
0.0 3.5 0.0
2.2 3.5 0.0
2.2 4.0 0.0
0.0 4.0 0.0
0.0687499999999 3.5 0.0
0.1375 3.5 0.0
0.20625 3.5 0.0
0.275 3.5 0.0
0.343749999999 3.5 0.0
0.412499999999 3.5 0.0
0.481249999999 3.5 0.0
0.549999999999 3.5 0.0
0.618749999998 3.5 0.0
0.687499999998 3.5 0.0
0.756249999998 3.5 0.0
0.824999999998 3.5 0.0
0.893749999998 3.5 0.0
0.962499999997 3.5 0.0
1.03125 3.5 0.0
1.1 3.5 0.0
1.16875 3.5 0.0
1.2375 3.5 0.0
1.30625 3.5 0.0
1.375 3.5 0.0
1.44375 3.5 0.0
1.5125 3.5 0.0
1.58125 3.5 0.0
1.65 3.5 0.0
1.71875 3.5 0.0
1.7875 3.5 0.0
1.85625 3.5 0.0
1.925 3.5 0.0
1.99375 3.5 0.0
2.0625 3.5 0.0
2.13125 3.5 0.0
2.2 3.56430812579 0.0
2.2 3.6227083524 0.0
2.2 3.67574343203 0.0
2.2 3.72390623714 0.0
2.2 3.76764438299 0.0
2.2 3.80736436348 0.0
2.2 3.84343531161 0.0
2.2 3.87619247056 0.0
2.2 3.90594026646 0.0
2.2 3.93295517223 0.0
2.2 3.9574882542 0.0
2.2 3.97976750927 0.0
2.18000003888 4.0 0.0
2.15999995974 4.0 0.0
2.13999995594 4.0 0.0
2.12000003893 4.0 0.0
2.0999999813 4.0 0.0
2.07999993507 4.0 0.0
2.06000001965 4.0 0.0
2.04000002354 4.0 0.0
2.01999993997 4.0 0.0
1.99999999426 4.0 0.0
1.98000004623 4.0 0.0
1.95999996625 4.0 0.0
1.93999996787 4.0 0.0
1.92000005069 4.0 0.0
1.90000001292 4.0 0.0
1.87999994967 4.0 0.0
1.86000003245 4.0 0.0
1.84000003166 4.0 0.0
1.81999995194 4.0 0.0
1.80000002065 4.0 0.0
1.78000005962 4.0 0.0
1.75999997703 4.0 0.0
1.73999998149 4.0 0.0
1.72000006236 4.0 0.0
1.70000000651 4.0 0.0
1.67999995967 4.0 0.0
1.66000004242 4.0 0.0
1.64000004304 4.0 0.0
1.61999996152 4.0 0.0
1.6000000096 4.0 0.0
1.58000006667 4.0 0.0
1.55999998704 4.0 0.0
1.53999998381 4.0 0.0
1.52000006764 4.0 0.0
1.5000000299 4.0 0.0
1.47999996242 4.0 0.0
1.46000004337 4.0 0.0
1.4400000454 4.0 0.0
1.41999996386 4.0 0.0
1.40000002834 4.0 0.0
1.38000006734 4.0 0.0
1.35999998576 4.0 0.0
1.33999998537 4.0 0.0
1.32000006658 4.0 0.0
1.30000001585 4.0 0.0
1.27999996279 4.0 0.0
1.26000004759 4.0 0.0
1.24000004493 4.0 0.0
1.2199999616 4.0 0.0
1.20000000906 4.0 0.0
1.18000006792 4.0 0.0
1.15999998616 4.0 0.0
1.13999999119 4.0 0.0
1.12000007157 4.0 0.0
1.1 4.0 0.0
1.07999992843 4.0 0.0
1.06000000881 4.0 0.0
1.04000001384 4.0 0.0
1.01999993209 4.0 0.0
0.999999990948 4.0 0.0
0.98000003841 4.0 0.0
0.959999955072 4.0 0.0
0.939999952416 4.0 0.0
0.920000037214 4.0 0.0
0.899999984154 4.0 0.0
0.879999933427 4.0 0.0
0.860000014636 4.0 0.0
0.840000014246 4.0 0.0
0.819999932662 4.0 0.0
0.79999997166 4.0 0.0
0.780000036145 4.0 0.0
0.759999954604 4.0 0.0
0.73999995663 4.0 0.0
0.72000003758 4.0 0.0
0.699999970103 4.0 0.0
0.679999932361 4.0 0.0
0.660000016189 4.0 0.0
0.640000012962 4.0 0.0
0.61999993333 4.0 0.0
0.599999990406 4.0 0.0
0.58000003848 4.0 0.0
0.559999956964 4.0 0.0
0.539999957581 4.0 0.0
0.520000040329 4.0 0.0
0.499999993489 4.0 0.0
0.479999937647 4.0 0.0
0.460000018512 4.0 0.0
0.440000022972 4.0 0.0
0.419999940378 4.0 0.0
0.399999979352 4.0 0.0
0.380000048063 4.0 0.0
0.359999968347 4.0 0.0
0.339999967553 4.0 0.0
0.320000050328 4.0 0.0
0.299999987077 4.0 0.0
0.279999949312 4.0 0.0
0.260000032129 4.0 0.0
0.240000033752 4.0 0.0
0.219999953776 4.0 0.0
0.200000005737 4.0 0.0
0.180000060031 4.0 0.0
0.159999976465 4.0 0.0
0.139999980354 4.0 0.0
0.120000064926 4.0 0.0
0.100000018697 4.0 0.0
0.0799999610675 4.0 0.0
0.0600000440571 4.0 0.0
0.0400000402596 4.0 0.0
0.0199999611169 4.0 0.0
0.0 3.97976750927 0.0
0.0 3.9574882542 0.0
0.0 3.93295517223 0.0
0.0 3.90594026646 0.0
0.0 3.87619247056 0.0
0.0 3.84343531161 0.0
0.0 3.80736436348 0.0
0.0 3.76764438299 0.0
0.0 3.72390623714 0.0
0.0 3.67574343203 0.0
0.0 3.6227083524 0.0
0.0 3.56430812579 0.0
0.249757963562 3.75212589829 0.0
1.94999996706 3.74954522137 0.0
0.488710285893 3.75947702441 0.0
0.726520490699 3.7655965719 0.0
0.967283134849 3.7597072979 0.0
1.20619032017 3.75831098673 0.0
1.45842774915 3.76733088374 0.0
1.69012076678 3.7622332834 0.0
0.130754044069 3.86878249167 0.0
2.06924595593 3.86878249167 0.0
1.8299999918 3.84622455633 0.0
1.56816462369 3.85034872999 0.0
0.369913859351 3.84868157925 0.0
0.608733620231 3.84706187144 0.0
1.33069778866 3.84790908234 0.0
0.84323446252 3.84762979148 0.0
1.08873170817 3.84705870913 0.0
0.250539365135 3.87785524304 0.0
1.94967747948 3.87849609822 0.0
1.73218750075 3.8916046151 0.0
0.468661874066 3.89189322974 0.0
1.47574192429 3.89639134117 0.0
0.704258110321 3.8963912684 0.0
1.18331258449 3.8976320365 0.0
0.949999953744 3.89208018478 0.0
1.64795374468 3.91749779939 0.0
0.548928463645 3.91905583847 0.0
1.38619509199 3.91928594438 0.0
0.788926872841 3.91906062101 0.0
1.27071160784 3.91777932845 0.0
1.02999997296 3.91685174433 0.0
1.81733541416 3.69950870754 0.0
1.86999999106 3.91823503401 0.0
0.071252620538 3.93011431841 0.0
2.12874737946 3.93011431841 0.0
2.07400690796 3.74293885365 0.0
0.125993092043 3.74293885365 0.0
0.32995676804 3.92118147353 0.0
2.00999996712 3.92542383197 0.0
0.190000032884 3.92542383197 0.0
1.56698738743 3.72218882919 0.0
1.33000000474 3.72531695685 0.0
0.848014510843 3.71986098938 0.0
1.09024665585 3.72285801424 0.0
0.610276609989 3.72290563624 0.0
1.54999998543 3.92414142844 0.0
0.629999973146 3.92414137652 0.0
0.869999974031 3.92414141814 0.0
1.11000003579 3.92414141267 0.0
1.79030638642 3.92649353654 0.0
0.370434802927 3.72513294336 0.0
0.410903135411 3.92892991244 0.0
1.33000002597 3.93737911571 0.0
0.129927648482 3.94112154503 0.0
2.07007235152 3.94112154503 0.0
1.93000000928 3.93875927586 0.0
0.26999999072 3.93875927586 0.0
1.40966706061 3.83880068991 0.0
0.770332962441 3.83880062149 0.0
1.24904900022 3.84293377683 0.0
1.01033287484 3.83880060723 0.0
0.530342681434 3.83880307444 0.0
0.189895273961 3.63486992823 0.0
2.00989835291 3.62845703161 0.0
0.998888153878 3.61665036233 0.0
1.47894673873 3.61675180774 0.0
0.51733910646 3.62937665489 0.0
0.705112628302 3.618743723 0.0
1.66672137035 3.63168728155 0.0
1.18508242495 3.61871739348 0.0
1.71000003443 3.94408608591 0.0
0.489999965568 3.94463856597 0.0
1.44983363802 3.94422347836 0.0
0.729999997105 3.94465012565 0.0
1.21016639734 3.94422345842 0.0
0.928621800545 3.94440037102 0.0
2.00626203014 3.81543543551 0.0
0.193627962274 3.81528928332 0.0
1.66628164144 3.83559795895 0.0
1.75661718781 3.81065958113 0.0
1.61143779865 3.94859227761 0.0
0.991673865748 3.95161238438 0.0
0.0604617941233 3.86281264864 0.0
2.13953820588 3.86281264865 0.0
0.300965570716 3.8114148258 0.0
0.2970894797 3.66361086085 0.0
0.398842167194 3.60449226805 0.0
1.51000004877 3.95218393067 0.0
1.90135619383 3.81213273629 0.0
0.669405272842 3.95495208979 0.0
1.07142780558 3.94866325309 0.0
0.592085094025 3.94901139323 0.0
0.831051660929 3.94633985879 0.0
1.14940528892 3.9549521224 0.0
0.44409344258 3.82719938178 0.0
1.49646539728 3.82376850413 0.0
0.683434082651 3.82631713605 0.0
0.92337834777 3.8234861632 0.0
1.16343437877 3.82631615351 0.0
1.90749084149 3.65350700271 0.0
1.8278758005 3.95083911942 0.0
0.37243073327 3.95235211027 0.0
1.29345662549 3.60569899261 0.0
0.813407949226 3.60572380122 0.0
1.29317153636 3.96216077293 0.0
1.367704599 3.96055764734 0.0
1.97071235041 3.96038324024 0.0
0.22928764959 3.96038324024 0.0
2.10610581798 3.66047411138 0.0
0.0938941820177 3.66047411138 0.0
1.67000000105 3.95862953468 0.0
1.74869816704 3.96079301687 0.0
0.531976761939 3.96138655466 0.0
0.451361042387 3.96112774725 0.0
0.771976832233 3.96138887156 0.0
1.88843481911 3.95881554986 0.0
1.61277513709 3.78538823015 0.0
2.13311214501 3.79435403671 0.0
0.0668878549946 3.79435403671 0.0
1.76678797151 3.60286552601 0.0
0.311702446283 3.9611157379 0.0
1.02877762737 3.96159282031 0.0
1.40830122607 3.96143175203 0.0
1.25214210333 3.957355862 0.0
1.59476493393 3.9048774062 0.0
1.56950979124 3.96148017208 0.0
0.890017020275 3.96125792969 0.0
2.03089110475 3.96040268709 0.0
0.169108895255 3.96040268709 0.0
0.939722125942 3.68539157065 0.0
1.41686981874 3.69192854313 0.0
0.0426348006718 3.96101756902 0.0
2.15736519933 3.96101756902 0.0
1.36077308019 3.79177204211 0.0
0.817982383499 3.78962669257 0.0
1.05834720932 3.78780184893 0.0
0.578349529346 3.78781530011 0.0
1.77992711518 3.87652731382 0.0
0.417982153133 3.87594990465 0.0
1.84363633012 3.77741329286 0.0
1.52244994479 3.87704541475 0.0
0.657426528912 3.87734838249 0.0
1.13742651778 3.87734834025 0.0
0.898116026439 3.8800466833 0.0
1.56984259435 3.64465823131 0.0
1.08983016076 3.6446495206 0.0
0.609942357805 3.64483976081 0.0
1.29451769374 3.79627773068 0.0
0.0893439668432 3.96574839433 0.0
2.11065603316 3.96574839433 0.0
2.01422398896 3.86980625824 0.0
0.185776011038 3.86980625824 0.0
0.305957237756 3.87340573745 0.0
1.72977480551 3.68665973332 0.0
1.25418096296 3.69351129461 0.0
0.629999973146 3.96272981435 0.0
1.11000003579 3.96272983221 0.0
0.772975283819 3.69297597031 0.0
1.89089074715 3.86951346173 0.0
0.445448577516 3.69456159386 0.0
1.82621986864 3.89678318705 0.0
2.07135424223 3.81165410377 0.0
0.128645757768 3.81165410377 0.0
0.373320289473 3.89968791662 0.0
1.79000004014 3.96541718891 0.0
0.383302070088 3.78976392323 0.0
0.409457623385 3.96502881851 0.0
1.55531527123 3.78787141386 0.0
1.34861332978 3.89383287415 0.0
0.593245985735 3.89483466551 0.0
0.833245353375 3.89479604398 0.0
1.0732444554 3.8948349405 0.0
0.911896623122 3.59194725763 0.0
0.187580554011 3.70699710313 0.0
2.01241944599 3.70699710313 0.0
1.39201907571 3.59233063354 0.0
2.09635520798 3.90516200201 0.0
0.103644792024 3.90516200201 0.0
1.89086147526 3.72621461413 0.0
1.02102684616 3.70044819701 0.0
1.49813234221 3.70194667869 0.0
0.53965669049 3.70593418829 0.0
1.63719578665 3.69772473547 0.0
0.685447658936 3.70127585046 0.0
1.16541741817 3.70128744764 0.0
0.901649266036 3.76287226775 0.0
0.992351690321 3.90662993531 0.0
1.69131894868 3.90657323657 0.0
1.9699561555 3.91599371502 0.0
0.230043844497 3.91599371502 0.0
1.61980840676 3.85005402918 0.0
2.04685187594 3.90639759008 0.0
0.153148124058 3.90639759008 0.0
0.512139828486 3.90538520837 0.0
1.43057458921 3.90702644399 0.0
0.749149996349 3.90689574876 0.0
[...]
POINT_DATA 1163
VECTORS Displacement float
0.0 0.0 0
0.0 0.0 0
0.00722897030434 -0.00194501836385 0
-0.0120555052777 -0.00324760036825 0
0.0 0.0 0
0.0 0.0 0
0.0 0.0 0
0.0 0.0 0
0.0 0.0 0
0.0 0.0 0
0.0 0.0 0
0.0 0.0 0
0.0 0.0 0
0.0 0.0 0
0.0 0.0 0
0.0 0.0 0
0.0 0.0 0
0.0 0.0 0
0.0 0.0 0
0.0 0.0 0
0.0 0.0 0
0.0 0.0 0
0.0 0.0 0
0.0 0.0 0
0.0 0.0 0
0.0 0.0 0
0.0 0.0 0
0.0 0.0 0
0.0 0.0 0
0.0 0.0 0
0.0 0.0 0
0.0 0.0 0
0.0 0.0 0
0.0 0.0 0
0.0 0.0 0
0.00131034264551 -0.00117897237453 0
0.00240542505484 -0.00169144183954 0
0.00336773356654 -0.00193333569629 0
0.00414115775459 -0.00203054068945 0
0.00476327968437 -0.00204905381498 0
0.00527205954534 -0.00203163968743 0
0.00568202452525 -0.00200813942093 0
0.00603267357899 -0.00198349131618 0
0.00632915950599 -0.00196375599501 0
0.00658963355141 -0.00195263672748 0
0.00682265660905 -0.00194709051783 0
0.00703481130445 -0.00194505279959 0
0.00722894628111 -0.00175243409864 0
0.00722773249485 -0.00155805831815 0
0.00722421698564 -0.00136330261562 0
0.00721751971784 -0.00116940828653 0
0.00720794592027 -0.000978524823182 0
0.00719612868149 -0.000792112277033 0
0.00718119631066 -0.000611010498804 0
0.00716538990628 -0.000436880341331 0
0.00714704383925 -0.000270098838484 0
0.00712882971907 -0.000111328562036 0
0.00710787517297 3.94103179464e-05 0
0.00708573544078 0.000179517961247 0
0.00706387434063 0.000309761268706 0
0.007039026632 0.000429681754036 0
0.00701412755291 0.000538404721169 0
0.00698425834544 0.000635816792768 0
0.00695179411119 0.000719547486586 0
0.00691424750167 0.000790896101558 0
0.00687187925043 0.000844907915748 0
0.0068188005881 0.000881588541919 0
0.00675918787586 0.000897855211847 0
0.00669440230678 0.000889993002596 0
0.0066133612376 0.000863100359943 0
0.00652107979968 0.000802530799458 0
0.0064080047035 0.000713216915216 0
0.00628480829633 0.000583732223652 0
0.00613302837469 0.000416250099687 0
0.00596407650354 0.000194950060909 0
0.00576788893748 -7.88034783171e-05 0
0.00555914184305 -0.000415309587588 0
0.00532042460425 -0.000832002430239 0
0.0050363496191 -0.00131251005488 0
0.00473463916807 -0.00189085901081 0
0.00439228013039 -0.00257356346425 0
0.00402266414141 -0.00337614431993 0
0.00361051357392 -0.00430370758155 0
0.0031562788033 -0.00539014194026 0
0.00265727799954 -0.00665154041423 0
0.00215575394248 -0.00810943278398 0
0.0015947198095 -0.00979306239635 0
0.00103612327605 -0.0117019812789 0
0.000448317062374 -0.0138905881847 0
-0.00014523679543 -0.0164153176331 0
-0.000824165167294 -0.0193297966135 0
-0.0014107843702 -0.022664971826 0
-0.00197272129385 -0.0265325224971 0
-0.00239845442787 -0.0309722864107 0
-0.00276577142611 -0.0362666596745 0
-0.00272409552516 -0.0424974325327 0
-0.00205575213926 -0.050526944074 0
-0.000288454683916 -0.0602435045973 0
0.00155768453089 -0.0692969905155 0
0.00324553055571 -0.0779578010362 0
0.00480129124825 -0.0860383309104 0
0.00602531715307 -0.093732921511 0
0.00707262858901 -0.10095259166 0
0.00786438393511 -0.107731102543 0
0.00830792034963 -0.114129635107 0
0.00856572394956 -0.120052115146 0
0.00858114156266 -0.125504206698 0
0.00832679242772 -0.130493427289 0
0.00788041489166 -0.134986472815 0
0.0072082328876 -0.138990573162 0
0.00635168300981 -0.142482348601 0
0.00533280530591 -0.145448543416 0
0.00415083762279 -0.147887772992 0
0.00285386277951 -0.149784041951 0
0.00145588745354 -0.151131723965 0
-6.12255934929e-05 -0.151885511198 0
-0.00163488739567 -0.152181381236 0
-0.00338771842278 -0.151874305461 0
-0.00499574137611 -0.150994912305 0
-0.00644959238926 -0.149561630022 0
-0.00779957722076 -0.147576309851 0
-0.00901650713113 -0.145049629521 0
-0.0100692022669 -0.141991815366 0
-0.0109513831257 -0.13841194381 0
-0.0116599448888 -0.134320666792 0
-0.0121746241467 -0.129720900676 0
-0.0124223442825 -0.124631763076 0
-0.0124939010736 -0.119137027648 0
-0.0122886018566 -0.113135006474 0
-0.011853420004 -0.106672416444 0
-0.0111531629954 -0.0997501190504 0
-0.0102404651355 -0.0923821730484 0
-0.00898141864576 -0.0845832978332 0
-0.00763618649043 -0.076321842389 0
-0.00602188413795 -0.0674088851102 0
-0.00448689941481 -0.0580738343901 0
-0.00305454246886 -0.0485618932271 0
-0.00311079362985 -0.0416490169201 0
-0.00356583225378 -0.0359495142978 0
-0.00418262390812 -0.0312080956651 0
-0.00498293949374 -0.0271709109308 0
-0.00578930611066 -0.0237361048342 0
-0.00654944298157 -0.0207811035448 0
-0.00736852533277 -0.0182416408731 0
-0.00810027285579 -0.0160724841915 0
-0.00883160674449 -0.014199002973 0
-0.00950363006871 -0.0126216101179 0
-0.0100719852831 -0.0112421085121 0
-0.0106032011576 -0.01005791432 0
-0.0110348638777 -0.00901208369951 0
-0.0114031615709 -0.00810249055576 0
-0.0116735627498 -0.00725971772531 0
-0.0118685937798 -0.00647429033783 0
-0.0119897559868 -0.00570564918246 0
-0.0120454022348 -0.00492089696374 0
-0.0120575020065 -0.00410467200377 0
-0.0129318891962 -0.00324571150348 0
-0.0139380454925 -0.00327112858365 0
-0.0150903884299 -0.00336418601992 0
-0.0163564363159 -0.00356842924867 0
-0.0176560531624 -0.00398297468355 0
-0.0187791874486 -0.00459208920526 0
-0.0197044598066 -0.00537795990636 0
-0.0199510769934 -0.00634863428276 0
-0.019312678514 -0.0072696780069 0
-0.0174004124892 -0.00796636430167 0
-0.0135542065864 -0.00783160594154 0
-0.00795780660146 -0.0060301597075 0
-0.0223339231357 -0.0135167757878 0
0.00494599519669 4.21605486844e-05 0
-0.0230068418182 -0.0439605782058 0
-0.00802043043229 -0.0703377507351 0
0.0120576547739 -0.0625162258991 0
0.0202469429849 -0.0302017258532 0
0.0132794493424 -0.005367377057 0
0.00776247067859 7.56519554644e-05 0
-0.0184554407705 -0.00823874399882 0
0.00599531230304 -0.000684475060965 0
0.0065585722655 0.000677600141394 0
0.00925559460558 -0.00117346262699 0
-0.0238640399745 -0.0338673365212 0
-0.0177204288507 -0.0830752095848 0
0.0154922774906 -0.0169499669836 0
0.00205033272562 -0.0976821243923 0
0.0185139036855 -0.0657696369025 0
-0.0194227755725 -0.0164564439243 0
0.00626712362766 0.000219816289289 0
0.00712456324209 0.00081510733675 0
-0.0223746831584 -0.0628523305611 0
0.00912750126886 -0.00435396677456 0
-0.0100893756663 -0.110195148801 0
0.0170384127308 -0.0499383321087 0
0.0102426020066 -0.10289432837 0
0.00722965703254 0.000346574595256 0
-0.0187282693953 -0.0900062310276 0
0.00888964545348 -0.0108332905334 0
-0.00283904813989 -0.122581739523 0
0.0120018068335 -0.0282380248371 0
0.0137710775034 -0.0953367738006 0
0.00526354568291 0.000139313207553 0
0.00666727358413 0.000671474193603 0
-0.0152643278628 -0.00610038487044 0
0.00656561352575 -0.00125024857694 0
0.00445503917195 -0.000683996032575 0
-0.0203295913044 -0.00715018382911 0
-0.0174549742239 -0.0285708932041 0
0.00655056210391 -0.000183477983602 0
-0.0154017044096 -0.0115158520062 0
0.00999525298047 -0.00170018969603 0
0.0172572878372 -0.0133433639616 0
0.00252185494267 -0.0576818923641 0
0.0177209197491 -0.0404742270785 0
-0.0158393804586 -0.0502989167618 0
0.0073923974744 -0.00144007050908 0
-0.0147709209936 -0.10890080546 0
0.00390507578699 -0.122013564404 0
0.0150534330486 -0.0759218114124 0
0.00682805669233 0.000899759064713 0
-0.0231986447616 -0.0234653146634 0
-0.0189036544689 -0.0499791558167 0
0.00798750818593 -0.0176185510994 0
-0.0144972819756 -0.00832198693179 0
0.00666812049576 -0.000693540911775 0
0.0066963796004 0.000376550097108 0
-0.0144597475343 -0.0190455374449 0
0.0132391052266 -0.00870854993354 0
-0.00449544829111 -0.0950206513015 0
0.0185732482467 -0.0300850232632 0
0.014992808073 -0.078427469148 0
-0.0221924652613 -0.0670007370848 0
-0.0153225863851 -0.00598636884757 0
0.00261906599597 -0.000238383036981 0
0.00913137209862 -0.0247459336371 0
0.00893824354676 -0.00302542681563 0
-0.0147888209718 -0.0228406226198 0
-0.00619135892092 -0.0283339033402 0
0.0058210690417 -0.000573607408623 0
0.0136648034001 -0.0153453686882 0
0.006836959965 0.000808772416101 0
-0.0177823719954 -0.0786078823288 0
0.00658155930448 -0.00579654472685 0
-0.00754497212501 -0.128827887627 0
0.0108467902549 -0.0451346664491 0
0.00779849595398 -0.122530791862 0
0.0055312165519 -0.000197921138426 0
-0.02105679022 -0.0110379696153 0
0.00806148444957 0.000259194490972 0
0.0070456028575 0.000582615922094 0
0.0066926421541 -0.0001150455972 0
0.0106966319908 -0.11347747375 0
-0.0183967201132 -0.00598184439444 0
0.00590195663742 -0.00135662374718 0
-0.0233794667606 -0.0208419036361 0
-0.0190617917137 -0.0121724527794 0
-0.0143367289558 -0.012485834968 0
0.00628795450552 -0.0027889453167 0
0.00591675290018 0.00036201688401 0
-0.0116158246605 -0.12516649161 0
0.0126434714751 -0.0924961781549 0
-0.0155454246731 -0.108338788973 0
0.00068705768727 -0.131855240223 0
0.0111949131024 -0.0680437242988 0
-0.024781429281 -0.047073023125 0
0.0113086340128 -0.00359072270279 0
-0.0121374294211 -0.0860168606292 0
0.00894449112164 -0.08497253609 0
0.0203185609807 -0.0460781273892 0
0.00363323895539 -3.11843012204e-05 0
0.00679607557124 0.000840506771255 0
-0.0143112817427 -0.0391767519344 0
0.011986993361 -0.00863748068893 0
-0.000134115944411 -0.0259262153379 0
0.00510476641298 -0.023797148578 0
0.00506246583147 -0.0128061920486 0
0.00682273610128 0.000113748739653 0
-0.0123061563516 -0.0147095416137 0
0.00304576976434 -0.000771934607843 0
-0.0164892536824 -0.00528370055221 0
0.00664854065351 0.000571119191798 0
0.00676215870037 0.000912547546311 0
-0.0158680462429 -0.0953883194429 0
-0.0152446167636 -0.0677140624929 0
-0.00412540831113 -0.137292414482 0
0.00681129622812 0.000607139422822 0
0.00921405951551 -0.000626344199772 0
0.00511792350966 -0.00126690978939 0
-0.0202349523709 -0.00637518472202 0
0.00363243619258 -0.000243953737893 0
-0.0117099116288 -0.0253800525883 0
0.0111893208575 -0.107433229004 0
0.00517461779834 -0.00882821505401 0
0.00693443677595 -0.0328615747391 0
0.0077335224412 -0.000426967593295 0
0.00622553509129 -0.000948382334141 0
0.00507678244082 -0.133092100797 0
0.00683104625658 -0.000352117416188 0
-0.0129841822664 -0.01032129205 0
0.00872617416924 -0.0444670583039 0
0.0138233970703 -0.00657411349223 0
-0.0137635306302 -0.00502345507571 0
0.00685600777464 -0.0015317962363 0
0.0163266828088 -0.0125743616682 0
-0.000133496950534 -0.0794958675411 0
0.0177298490742 -0.058364260647 0
-0.0195154428085 -0.0630513150806 0
0.00691303824727 0.000822001072058 0
-0.023383757601 -0.0470968067216 0
0.0060106653919 0.000422503072863 0
0.00923087373339 -0.00243334349052 0
-0.0139502820278 -0.0987979067683 0
0.0184819829907 -0.0598767000004 0
0.00652644756649 -0.105000455341 0
0.00813050472014 -0.00160405320492 0
0.0139033742064 -0.0255515188422 0
-0.0123212525639 -0.0313310894637 0
0.0184716526818 -0.0203384465883 0
-0.0133638283516 -0.00675444999856 0
0.00689408609387 -0.00107572521873 0
0.00606881816349 -0.000229654932972 0
-0.0188984159221 -0.011034746029 0
-0.021016281098 -0.023522913513 0
0.00618060682249 -0.000101098610979 0
0.0179623747543 -0.018255837739 0
-0.0134438270974 -0.120609350478 0
0.0109389918175 -0.0832349255886 0
-0.00341486209976 -0.0501261478324 0
0.00638147412514 0.000522155279659 0
-0.0212386465968 -0.0279249622899 0
0.00671836199467 0.000796429013222 0
0.00536930807742 -0.000694182199539 0
-0.0203435474093 -0.00792784296634 0
-0.0209504957327 -0.0376803654236 0
0.00679377624861 0.00091322085252 0
-0.0249168612343 -0.0314658006002 0
-0.0132829377787 -0.0517787417486 0
0.0104255583273 -0.00179229735065 0
0.0118272176121 -0.015057719023 0
-0.0177572425518 -0.0935832558984 0
0.000992446646578 -0.113806253841 0
0.0162851809157 -0.0797089537656 0
0.00437493779483 -0.0213941346548 0
-0.0199005565752 -0.00836953808105 0
0.00403745126616 -0.000276721153501 0
0.00914850717591 -0.00444079213633 0
0.00633549564976 -0.000934988028111 0
-0.016568239938 -0.00724200879694 0
0.00500138721866 0.000160102261569 0
0.0140058604604 -0.0426129121208 0
0.0115778900442 -0.0034772115831 0
-0.0189502873769 -0.0397849508672 0
0.00803972479699 -0.000701220871388 0
-0.0101154321919 -0.0496906623805 0
0.0185121840044 -0.0282313732816 0
0.00708839485197 -0.068300198256 0
0.0124064646782 -0.100284817948 0
0.00720998493498 0.000669314873638 0
0.00651057218533 0.000110531165981 0
-0.01630009619 -0.0146439542745 0
0.0084998468315 -0.00021203908597 0
0.0063673599854 -0.000488880633322 0
-0.0165850250267 -0.00933451465296 0
-0.0206691696732 -0.0773076683521 0
0.00916309252957 -0.00708188969144 0
-0.00629170980953 -0.11704982144 0
0.0145150153369 -0.0382619250808 0
0.00415858961424 -0.00122355536038 0
-0.019615082404 -0.00629931860803 0
0.00880114825127 -0.12490246353 0
-0.0167124752969 -0.0051787609978 0
0.00628043464876 -0.00155419694296 0
0.00535334448976 -0.00425351876604 0
-0.00932988783206 -0.133653639239 0
0.00814473863747 -0.0567857209052 0
-0.0217694842056 -0.015325581563 0
-0.0234929950308 -0.0193949828791 0
0.015677623536 -0.0241740303744 0
0.00582364622147 0.000137191106649 0
0.00441735128174 -0.0176240276095 0
0.00654003320162 0.000311579348174 0
0.0197365482474 -0.0471110635105 0
-0.0152911951051 -0.0676803352847 0
0.00734977872507 -0.00398229723556 0
-0.0101721855346 -0.120793545511 0
0.0138915280131 -0.0550091920935 0
0.00643259790253 0.000238413549945 0
0.00466873243569 -0.0805157285776 0
0.0024255375656 -0.000109384051732 0
0.00684487515249 0.000379304623868 0
-0.0114031356391 -0.019151094297 0
-0.015139030695 -0.104806410428 0
-0.00197876736111 -0.139805235417 0
0.00593576314763 -0.00171233022102 0
0.00302573908098 -0.137002080793 0
0.00684173086513 0.000720947279087 0
0.00688389827766 -0.000693182351654 0
-0.0130518267583 -0.00839844942793 0
-0.010578712329 -0.0304272428974 0
0.00742945726877 0.000612218078757 0
0.00688187912242 -8.93018452117e-05 0
-0.0119975782675 -0.0125025230148 0
-0.0238055240382 -0.0582694445185 0
0.0116480662044 -0.00545699562457 0
-0.00879289569351 -0.0950355953738 0
0.0197633643439 -0.0403414597924 0
0.0118024629432 -0.0872700191289 0
0.00201342572325 -0.000141601674808 0
-0.0106639983372 -0.00512971701451 0
0.00693778427202 0.000890934402742 0
0.0101692736429 -0.112433486184 0
-0.0205890543062 -0.061046903895 0
0.0119213303533 -0.0212814296287 0
-0.00208338676053 -0.106171172285 0
0.0157959437157 -0.0818664066839 0
-0.0202736038473 -0.0801943669891 0
-0.00917218822931 -0.00304887859722 0
0.00147007749466 -0.000305712680068 0
-0.0110709252984 -0.00718359156997 0
0.00655300210651 0.000506381648109 0
-0.0182816450469 -0.0225866643734 0
0.0118959945276 -0.00338986107561 0
0.0124480923504 -0.0111752730558 0
0.00695222302495 -0.114563375528 0
-0.0238573756295 -0.0337367696234 0
0.0077579510804 -0.00247831468586 0
-0.0127387566329 -0.112246136052 0
0.0157312520364 -0.0640280691355 0
0.00564579510143 -0.000966212868404 0
-0.0194694979789 -0.00711688496601 0
0.00665079927127 0.000799989609383 0
0.00705923949915 -0.000776879081474 0
0.00492606502915 -0.0003718976881 0
-0.0211215583094 -0.00911023255285 0
-0.014748843919 -0.0833004806335 0
0.00517166158268 -0.00557392248758 0
-0.00765114053676 -0.136063946345 0
0.00756355246967 -0.129796428833 0
0.00715075642611 -0.0473439032858 0
0.0191373861279 -0.0210258831683 0
0.00773004613533 0.000392170207506 0
0.00543537220475 -0.00156572718443 0
-0.0196225127464 -0.00580882995424 0
0.0153335020693 -0.00881236515803 0
0.00357464744483 -0.000717990872776 0
0.00656553131942 0.000571119088283 0
0.007972976537 -0.00937310247147 0
0.0147658084158 -0.00972848826885 0
-0.00523268298871 -0.0134032325907 0
0.00274171907057 -0.0407925474471 0
-0.0195333729261 -0.0106063976446 0
-0.00292708994064 -0.0651897186963 0
-0.024333076293 -0.026986309224 0
0.00847135519563 -0.00108286606094 0
-0.0103062404923 -0.0111301608989 0
-0.0100497007189 -0.00404456702592 0
0.00165664801996 -0.000770959674987 0
0.00692966186625 -0.00131722774792 0
-0.0133229427106 -0.0058427795099 0
0.00655740540264 0.000661654668538 0
0.00957719272861 -0.00806856575633 0
-0.00240032592498 -0.0180567619905 0
-0.0152927415929 -0.0046728025623 0
0.00655931928096 -0.00164963265712 0
-0.00892232082998 -0.0140999742944 0
0.00392668246665 -4.72990586002e-05 0
-0.0198317661686 -0.0171226281115 0
0.00781455803839 -0.014947299811 0
0.00583893710384 -0.00170302640685 0
-0.0222203795289 -0.0549091563306 0
-0.0212902225138 -0.028357884522 0
0.0141397054516 -0.00727011137566 0
0.0149010365615 -0.0650353663523 0
0.00611237173875 -0.00019354425681 0
0.00959084265937 -0.120871234678 0
0.0092094048956 -0.0141471965155 0
0.00575529610847 -0.000432138872375 0
-0.0198580098191 -0.00945456611071 0
0.00304140244868 -0.000336287405708 0
0.0199243278833 -0.0263782502708 0
0.0101560286892 -0.105807092961 0
-0.00515608288912 -0.0767683420429 0
-0.00120403305881 -0.0952970173445 0
0.0167686453553 -0.0739979491462 0
-0.0204333100627 -0.075107438041 0
0.0145590597941 -0.0121108767839 0
0.00340341101658 -0.0104310932194 0
0.00255930175064 -0.028727946333 0
0.00397207422798 -2.10784336736e-05 0
0.00661103476808 -0.000967668627629 0
-0.0149496984553 -0.00712430876863 0
-0.0138619515695 -0.118349071294 0
-0.0119987299208 -0.128415755868 0
0.0105041378616 -0.0924760957847 0
0.00889342071403 -0.0764037045755 0
-0.0189916131126 -0.00649655953465 0
0.00377227646264 -0.000583604770726 0
0.00776572539832 0.00035280343268 0
0.00632322105446 -0.00123748621605 0
-0.016560490773 -0.00619375446987 0
0.00622906850111 0.000513463368132 0
0.00499800937546 -0.00287353362418 0
0.000612089079617 -0.145215477502 0
-0.0119254745265 -0.0718795867603 0
0.0205638002989 -0.0396469352641 0
0.00681733038185 0.000876031857769 0
0.016914855143 -0.0299829665917 0
-0.0106263892988 -0.0437703704381 0
-0.0132525656901 -0.00439435834511 0
0.00696507878248 -0.00168550715996 0
0.00378133682825 -0.111186833832 0
0.0173625283127 -0.0703972875778 0
-0.015914623683 -0.0981761909248 0
-0.0200467160611 -0.0136141441334 0
0.00557744910008 0.000303746016591 0
0.00609610306728 3.65832862228e-06 0
0.00660544676648 -0.000470466784431 0
-0.0148814370862 -0.00948308617107 0
0.00673549264881 0.000778431309384 0
0.00675199099075 0.000917201223927 0
-0.0115073886645 -0.0608124221339 0
0.00839573904796 -4.10030996383e-05 0
0.0101417689746 -0.00221611405784 0
-0.0151922656905 -0.084994815335 0
0.00606672355161 -0.0907178519918 0
0.0196940423035 -0.0559480334004 0
-0.0246792219446 -0.040728061261 0
0.0133217986407 -0.0896394504982 0
-0.0240833278019 -0.0503686833447 0
0.0113626289126 -0.00716254742589 0
-0.0224477798554 -0.0690779287335 0
-0.00632869134505 -0.104672429459 0
0.00635186328775 -6.7238657943e-05 0
0.0127685493289 -0.00536941941205 0
-0.0173893920578 -0.0124292467149 0
-0.0089021683466 -0.0812971749383 0
0.0117836533021 -0.0749910116184 0
0.0205168998656 -0.035817377039 0
0.0072948342126 -5.65928557944e-06 0
0.00780386552809 0.000109822003147 0
-0.0174637989397 -0.0978422634911 0
-0.000608217240885 -0.124398133871 0
0.0144512664619 -0.0893081247366 0
0.00286151215751 -0.0150086344131 0
0.00244534543381 -0.0206888359091 0
0.0103111248588 -0.00377999775198 0
-0.0114895911191 -0.0984321805014 0
0.0191664381892 -0.0498401902115 0
0.0093521906287 -0.0968048028426 0
0.00694013665346 0.000259412710127 0
-0.0100358687564 -0.017002718474 0
-0.0171818490827 -0.0343087375364 0
0.00844977590217 -0.000370241303079 0
0.00728834279728 -0.0076546938131 0
0.0109636934641 -0.0368730440638 0
0.00713195349577 0.000769312860612 0
0.00691351385818 0.000489033707818 0
-0.0106558233793 -0.13209471422 0
0.00817785536894 -0.0662712336517 0
0.00536545125423 -1.70198101906e-05 0
-0.0220314763454 -0.0128144760197 0
0.0158792670916 -0.052581255856 0
-0.0179097213572 -0.00520255879619 0
0.00600609171269 -0.00161376458197 0
-0.0229124137155 -0.0278446189117 0
-0.0198516451792 -0.0510601205363 0
-0.0092524581629 -0.0218686388134 0
-0.0239175921576 -0.0538961678252 0
0.00649542912099 0.000278924689323 0
-0.0171888749612 -0.0172663241129 0
0.00742523994214 0.000620305818374 0
-0.00858604660262 -0.00320508855522 0
0.0013823171384 -0.000158854485956 0
-0.0213737090022 -0.0186166703484 0
0.0053964930299 -0.0148424416412 0
0.00637132261261 -0.00235215126422 0