# vtk DataFile Version 2.0
Generated with Solid Solver
ASCII
DATASET UNSTRUCTURED_GRID
POINTS 1163 float 
0.0 3.5 0.0
2.2 3.5 0.0
2.2 4.0 0.0
0.0 4.0 0.0
0.0687499999999 3.5 0.0
0.1375 3.5 0.0
0.20625 3.5 0.0
0.275 3.5 0.0
0.343749999999 3.5 0.0
0.412499999999 3.5 0.0
0.481249999999 3.5 0.0
0.549999999999 3.5 0.0
0.618749999998 3.5 0.0
0.687499999998 3.5 0.0
0.756249999998 3.5 0.0
0.824999999998 3.5 0.0
0.893749999998 3.5 0.0
0.962499999997 3.5 0.0
1.03125 3.5 0.0
1.1 3.5 0.0
1.16875 3.5 0.0
1.2375 3.5 0.0
1.30625 3.5 0.0
1.375 3.5 0.0
1.44375 3.5 0.0
1.5125 3.5 0.0
1.58125 3.5 0.0
1.65 3.5 0.0
1.71875 3.5 0.0
1.7875 3.5 0.0
1.85625 3.5 0.0
1.925 3.5 0.0
1.99375 3.5 0.0
2.0625 3.5 0.0
2.13125 3.5 0.0
2.2 3.56430812579 0.0
2.2 3.6227083524 0.0
2.2 3.67574343203 0.0
2.2 3.72390623714 0.0
2.2 3.76764438299 0.0
2.2 3.80736436348 0.0
2.2 3.84343531161 0.0
2.2 3.87619247056 0.0
2.2 3.90594026646 0.0
2.2 3.93295517223 0.0
2.2 3.9574882542 0.0
2.2 3.97976750927 0.0
2.18000003888 4.0 0.0
2.15999995974 4.0 0.0
2.13999995594 4.0 0.0
2.12000003893 4.0 0.0
2.0999999813 4.0 0.0
2.07999993507 4.0 0.0
2.06000001965 4.0 0.0
2.04000002354 4.0 0.0
2.01999993997 4.0 0.0
1.99999999426 4.0 0.0
1.98000004623 4.0 0.0
1.95999996625 4.0 0.0
1.93999996787 4.0 0.0
1.92000005069 4.0 0.0
1.90000001292 4.0 0.0
1.87999994967 4.0 0.0
1.86000003245 4.0 0.0
1.84000003166 4.0 0.0
1.81999995194 4.0 0.0
1.80000002065 4.0 0.0
1.78000005962 4.0 0.0
1.75999997703 4.0 0.0
1.73999998149 4.0 0.0
1.72000006236 4.0 0.0
1.70000000651 4.0 0.0
1.67999995967 4.0 0.0
1.66000004242 4.0 0.0
1.64000004304 4.0 0.0
1.61999996152 4.0 0.0
1.6000000096 4.0 0.0
1.58000006667 4.0 0.0
1.55999998704 4.0 0.0
1.53999998381 4.0 0.0
1.52000006764 4.0 0.0
1.5000000299 4.0 0.0
1.47999996242 4.0 0.0
1.46000004337 4.0 0.0
1.4400000454 4.0 0.0
1.41999996386 4.0 0.0
1.40000002834 4.0 0.0
1.38000006734 4.0 0.0
1.35999998576 4.0 0.0
1.33999998537 4.0 0.0
1.32000006658 4.0 0.0
1.30000001585 4.0 0.0
1.27999996279 4.0 0.0
1.26000004759 4.0 0.0
1.24000004493 4.0 0.0
1.2199999616 4.0 0.0
1.20000000906 4.0 0.0
1.18000006792 4.0 0.0
1.15999998616 4.0 0.0
1.13999999119 4.0 0.0
1.12000007157 4.0 0.0
1.1 4.0 0.0
1.07999992843 4.0 0.0
1.06000000881 4.0 0.0
1.04000001384 4.0 0.0
1.01999993209 4.0 0.0
0.999999990948 4.0 0.0
0.98000003841 4.0 0.0
0.959999955072 4.0 0.0
0.939999952416 4.0 0.0
0.920000037214 4.0 0.0
0.899999984154 4.0 0.0
0.879999933427 4.0 0.0
0.860000014636 4.0 0.0
0.840000014246 4.0 0.0
0.819999932662 4.0 0.0
0.79999997166 4.0 0.0
0.780000036145 4.0 0.0
0.759999954604 4.0 0.0
0.73999995663 4.0 0.0
0.72000003758 4.0 0.0
0.699999970103 4.0 0.0
0.679999932361 4.0 0.0
0.660000016189 4.0 0.0
0.640000012962 4.0 0.0
0.61999993333 4.0 0.0
0.599999990406 4.0 0.0
0.58000003848 4.0 0.0
0.559999956964 4.0 0.0
0.539999957581 4.0 0.0
0.520000040329 4.0 0.0
0.499999993489 4.0 0.0
0.479999937647 4.0 0.0
0.460000018512 4.0 0.0
0.440000022972 4.0 0.0
0.419999940378 4.0 0.0
0.399999979352 4.0 0.0
0.380000048063 4.0 0.0
0.359999968347 4.0 0.0
0.339999967553 4.0 0.0
0.320000050328 4.0 0.0
0.299999987077 4.0 0.0
0.279999949312 4.0 0.0
0.260000032129 4.0 0.0
0.240000033752 4.0 0.0
0.219999953776 4.0 0.0
0.200000005737 4.0 0.0
0.180000060031 4.0 0.0
0.159999976465 4.0 0.0
0.139999980354 4.0 0.0
0.120000064926 4.0 0.0
0.100000018697 4.0 0.0
0.0799999610675 4.0 0.0
0.0600000440571 4.0 0.0
0.0400000402596 4.0 0.0
0.0199999611169 4.0 0.0
0.0 3.97976750927 0.0
0.0 3.9574882542 0.0
0.0 3.93295517223 0.0
0.0 3.90594026646 0.0
0.0 3.87619247056 0.0
0.0 3.84343531161 0.0
0.0 3.80736436348 0.0
0.0 3.76764438299 0.0
0.0 3.72390623714 0.0
0.0 3.67574343203 0.0
0.0 3.6227083524 0.0
0.0 3.56430812579 0.0
0.249757963562 3.75212589829 0.0
1.94999996706 3.74954522137 0.0
0.488710285893 3.75947702441 0.0
0.726520490699 3.7655965719 0.0
0.967283134849 3.7597072979 0.0
1.20619032017 3.75831098673 0.0
1.45842774915 3.76733088374 0.0
1.69012076678 3.7622332834 0.0
0.130754044069 3.86878249167 0.0
2.06924595593 3.86878249167 0.0
1.8299999918 3.84622455633 0.0
1.56816462369 3.85034872999 0.0
0.369913859351 3.84868157925 0.0
0.608733620231 3.84706187144 0.0
1.33069778866 3.84790908234 0.0
0.84323446252 3.84762979148 0.0
1.08873170817 3.84705870913 0.0
0.250539365135 3.87785524304 0.0
1.94967747948 3.87849609822 0.0
1.73218750075 3.8916046151 0.0
0.468661874066 3.89189322974 0.0
1.47574192429 3.89639134117 0.0
0.704258110321 3.8963912684 0.0
1.18331258449 3.8976320365 0.0
0.949999953744 3.89208018478 0.0
1.64795374468 3.91749779939 0.0
0.548928463645 3.91905583847 0.0
1.38619509199 3.91928594438 0.0
0.788926872841 3.91906062101 0.0
1.27071160784 3.91777932845 0.0
1.02999997296 3.91685174433 0.0
1.81733541416 3.69950870754 0.0
1.86999999106 3.91823503401 0.0
0.071252620538 3.93011431841 0.0
2.12874737946 3.93011431841 0.0
2.07400690796 3.74293885365 0.0
0.125993092043 3.74293885365 0.0
0.32995676804 3.92118147353 0.0
2.00999996712 3.92542383197 0.0
0.190000032884 3.92542383197 0.0
1.56698738743 3.72218882919 0.0
1.33000000474 3.72531695685 0.0
0.848014510843 3.71986098938 0.0
1.09024665585 3.72285801424 0.0
0.610276609989 3.72290563624 0.0
1.54999998543 3.92414142844 0.0
0.629999973146 3.92414137652 0.0
0.869999974031 3.92414141814 0.0
1.11000003579 3.92414141267 0.0
1.79030638642 3.92649353654 0.0
0.370434802927 3.72513294336 0.0
0.410903135411 3.92892991244 0.0
1.33000002597 3.93737911571 0.0
0.129927648482 3.94112154503 0.0
2.07007235152 3.94112154503 0.0
1.93000000928 3.93875927586 0.0
0.26999999072 3.93875927586 0.0
1.40966706061 3.83880068991 0.0
0.770332962441 3.83880062149 0.0
1.24904900022 3.84293377683 0.0
1.01033287484 3.83880060723 0.0
0.530342681434 3.83880307444 0.0
0.189895273961 3.63486992823 0.0
2.00989835291 3.62845703161 0.0
0.998888153878 3.61665036233 0.0
1.47894673873 3.61675180774 0.0
0.51733910646 3.62937665489 0.0
0.705112628302 3.618743723 0.0
1.66672137035 3.63168728155 0.0
1.18508242495 3.61871739348 0.0
1.71000003443 3.94408608591 0.0
0.489999965568 3.94463856597 0.0
1.44983363802 3.94422347836 0.0
0.729999997105 3.94465012565 0.0
1.21016639734 3.94422345842 0.0
0.928621800545 3.94440037102 0.0
2.00626203014 3.81543543551 0.0
0.193627962274 3.81528928332 0.0
1.66628164144 3.83559795895 0.0
1.75661718781 3.81065958113 0.0
1.61143779865 3.94859227761 0.0
0.991673865748 3.95161238438 0.0
0.0604617941233 3.86281264864 0.0
2.13953820588 3.86281264865 0.0
0.300965570716 3.8114148258 0.0
0.2970894797 3.66361086085 0.0
0.398842167194 3.60449226805 0.0
1.51000004877 3.95218393067 0.0
1.90135619383 3.81213273629 0.0
0.669405272842 3.95495208979 0.0
1.07142780558 3.94866325309 0.0
0.592085094025 3.94901139323 0.0
0.831051660929 3.94633985879 0.0
1.14940528892 3.9549521224 0.0
0.44409344258 3.82719938178 0.0
1.49646539728 3.82376850413 0.0
0.683434082651 3.82631713605 0.0
0.92337834777 3.8234861632 0.0
1.16343437877 3.82631615351 0.0
1.90749084149 3.65350700271 0.0
1.8278758005 3.95083911942 0.0
0.37243073327 3.95235211027 0.0
1.29345662549 3.60569899261 0.0
0.813407949226 3.60572380122 0.0
1.29317153636 3.96216077293 0.0
1.367704599 3.96055764734 0.0
1.97071235041 3.96038324024 0.0
0.22928764959 3.96038324024 0.0
2.10610581798 3.66047411138 0.0
0.0938941820177 3.66047411138 0.0
1.67000000105 3.95862953468 0.0
1.74869816704 3.96079301687 0.0
0.531976761939 3.96138655466 0.0
0.451361042387 3.96112774725 0.0
0.771976832233 3.96138887156 0.0
1.88843481911 3.95881554986 0.0
1.61277513709 3.78538823015 0.0
2.13311214501 3.79435403671 0.0
0.0668878549946 3.79435403671 0.0
1.76678797151 3.60286552601 0.0
0.311702446283 3.9611157379 0.0
1.02877762737 3.96159282031 0.0
1.40830122607 3.96143175203 0.0
1.25214210333 3.957355862 0.0
1.59476493393 3.9048774062 0.0
1.56950979124 3.96148017208 0.0
0.890017020275 3.96125792969 0.0
2.03089110475 3.96040268709 0.0
0.169108895255 3.96040268709 0.0
0.939722125942 3.68539157065 0.0
1.41686981874 3.69192854313 0.0
0.0426348006718 3.96101756902 0.0
2.15736519933 3.96101756902 0.0
1.36077308019 3.79177204211 0.0
0.817982383499 3.78962669257 0.0
1.05834720932 3.78780184893 0.0
0.578349529346 3.78781530011 0.0
1.77992711518 3.87652731382 0.0
0.417982153133 3.87594990465 0.0
1.84363633012 3.77741329286 0.0
1.52244994479 3.87704541475 0.0
0.657426528912 3.87734838249 0.0
1.13742651778 3.87734834025 0.0
0.898116026439 3.8800466833 0.0
1.56984259435 3.64465823131 0.0
1.08983016076 3.6446495206 0.0
0.609942357805 3.64483976081 0.0
1.29451769374 3.79627773068 0.0
0.0893439668432 3.96574839433 0.0
2.11065603316 3.96574839433 0.0
2.01422398896 3.86980625824 0.0
0.185776011038 3.86980625824 0.0
0.305957237756 3.87340573745 0.0
1.72977480551 3.68665973332 0.0
1.25418096296 3.69351129461 0.0
0.629999973146 3.96272981435 0.0
1.11000003579 3.96272983221 0.0
0.772975283819 3.69297597031 0.0
1.89089074715 3.86951346173 0.0
0.445448577516 3.69456159386 0.0
1.82621986864 3.89678318705 0.0
2.07135424223 3.81165410377 0.0
0.128645757768 3.81165410377 0.0
0.373320289473 3.89968791662 0.0
1.79000004014 3.96541718891 0.0
0.383302070088 3.78976392323 0.0
0.409457623385 3.96502881851 0.0
1.55531527123 3.78787141386 0.0
1.34861332978 3.89383287415 0.0
0.593245985735 3.89483466551 0.0
0.833245353375 3.89479604398 0.0
1.0732444554 3.8948349405 0.0
0.911896623122 3.59194725763 0.0
0.187580554011 3.70699710313 0.0
2.01241944599 3.70699710313 0.0
1.39201907571 3.59233063354 0.0
2.09635520798 3.90516200201 0.0
0.103644792024 3.90516200201 0.0
1.89086147526 3.72621461413 0.0
1.02102684616 3.70044819701 0.0
1.49813234221 3.70194667869 0.0
0.53965669049 3.70593418829 0.0
1.63719578665 3.69772473547 0.0
0.685447658936 3.70127585046 0.0
1.16541741817 3.70128744764 0.0
0.901649266036 3.76287226775 0.0
0.992351690321 3.90662993531 0.0
1.69131894868 3.90657323657 0.0
1.9699561555 3.91599371502 0.0
0.230043844497 3.91599371502 0.0
1.61980840676 3.85005402918 0.0
2.04685187594 3.90639759008 0.0
0.153148124058 3.90639759008 0.0
0.512139828486 3.90538520837 0.0
1.43057458921 3.90702644399 0.0
0.749149996349 3.90689574876 0.0
[...]
POINT_DATA 1163
VECTORS Displacement float
0.0 0.0 0
0.0 0.0 0
0.000134535773793 -3.56820895868e-05 0
-2.62339557317e-05 0.000194681983058 0
0.0 0.0 0
0.0 0.0 0
0.0 0.0 0
0.0 0.0 0
0.0 0.0 0
0.0 0.0 0
0.0 0.0 0
0.0 0.0 0
0.0 0.0 0
0.0 0.0 0
0.0 0.0 0
0.0 0.0 0
0.0 0.0 0
0.0 0.0 0
0.0 0.0 0
0.0 0.0 0
0.0 0.0 0
0.0 0.0 0
0.0 0.0 0
0.0 0.0 0
0.0 0.0 0
0.0 0.0 0
0.0 0.0 0
0.0 0.0 0
0.0 0.0 0
0.0 0.0 0
0.0 0.0 0
0.0 0.0 0
0.0 0.0 0
0.0 0.0 0
0.0 0.0 0
2.01012782034e-05 -1.89013488746e-05 0
3.77466407952e-05 -2.77049406983e-05 0
5.40723509068e-05 -3.23510319068e-05 0
6.80682411521e-05 -3.47236884057e-05 0
7.99764932959e-05 -3.5693051107e-05 0
9.02598910696e-05 -3.59876026539e-05 0
9.90550993425e-05 -3.60383076161e-05 0
0.00010680788418 -3.5951879109e-05 0
0.00011360982819 -3.58360326193e-05 0
0.000119675521437 -3.57527470848e-05 0
0.00012512077725 -3.57060481075e-05 0
0.000130052052315 -3.56838047944e-05 0
0.000134534185254 -3.12433489757e-05 0
0.000134519237896 -2.67957547735e-05 0
0.00013448782211 -2.23593036879e-05 0
0.000134436689158 -1.79473698142e-05 0
0.000134375975118 -1.3579212741e-05 0
0.000134317179945 -9.25765090922e-06 0
0.000134256854237 -4.99052592786e-06 0
0.000134213285066 -7.69313889346e-07 0
0.00013417510727 3.40346149969e-06 0
0.000134152401346 7.54352969408e-06 0
0.000134124859119 1.16534761617e-05 0
0.000134093776783 1.57364093369e-05 0
0.000134048123397 1.9796741488e-05 0
0.000133964025149 2.38636408854e-05 0
0.000133819864933 2.79145642623e-05 0
0.000133571788611 3.19823837187e-05 0
0.000133236144101 3.60407725312e-05 0
0.000132688811025 4.0123961491e-05 0
0.000131967659484 4.41649834336e-05 0
0.000130948104417 4.81806986071e-05 0
0.000129587307774 5.21399599971e-05 0
0.000127918493559 5.59115677465e-05 0
0.000125754058085 5.97569158948e-05 0
0.000123067624121 6.32330919589e-05 0
0.000119694943232 6.66817294732e-05 0
0.000115642792317 6.96413760504e-05 0
0.000110580913765 7.23732033348e-05 0
0.000104810058397 7.44124070576e-05 0
9.7794584896e-05 7.58495029565e-05 0
8.97672462809e-05 7.64142118883e-05 0
8.03509541876e-05 7.58182970475e-05 0
6.93063229138e-05 7.46219904499e-05 0
5.67999650115e-05 7.16596589337e-05 0
4.22899206066e-05 6.70441879291e-05 0
2.59076858977e-05 6.02850549207e-05 0
7.15554512232e-06 5.13712676753e-05 0
-1.41676246055e-05 3.92709392116e-05 0
-3.81918096959e-05 2.42656862198e-05 0
-6.43050223425e-05 5.05324187296e-06 0
-9.40532420218e-05 -1.79439364347e-05 0
-0.000126288747466 -4.6309780137e-05 0
-0.000161999991668 -7.99189538858e-05 0
-0.000201180754208 -0.000120528466644 0
-0.000245796193124 -0.000167445927795 0
-0.000292777298536 -0.000223264478758 0
-0.00034443426973 -0.000288954799682 0
-0.000399405197229 -0.000366401899009 0
-0.000459831195857 -0.000453361440033 0
-0.00052328019826 -0.000555408945012 0
-0.000593840697823 -0.000671127537763 0
-0.000668279472493 -0.000805275563418 0
-0.000747874097613 -0.000959891785768 0
-0.000832923387214 -0.00113629426874 0
-0.000922850241454 -0.00133660797913 0
-0.00101405207436 -0.00156539323832 0
-0.00111616345291 -0.00182698327951 0
-0.00122215334328 -0.00212870889269 0
-0.00132247195604 -0.00247632879068 0
-0.00143708571476 -0.0028750634033 0
-0.00154734458706 -0.00333211096813 0
-0.0016496788403 -0.00386586898223 0
-0.00176646356057 -0.00449764414894 0
-0.00187954562814 -0.00526137770589 0
-0.00198978411627 -0.00624345271153 0
-0.00200288279309 -0.00749688175014 0
-0.00178720468961 -0.00961940392529 0
-0.00142152495124 -0.0112465955758 0
-0.000978483921841 -0.0124011186809 0
-0.000514072804115 -0.0130883553946 0
-5.91635972153e-05 -0.013312233432 0
0.000417436881845 -0.0130880745855 0
0.000907770377812 -0.0123977546446 0
0.00132733382051 -0.0112414717265 0
0.00173258136308 -0.00961586745148 0
0.00192166806381 -0.00748391379737 0
0.00188031855611 -0.00621560456648 0
0.00178142378871 -0.00525879264704 0
0.00166798844561 -0.00449370156977 0
0.00156761950822 -0.0038663853155 0
0.00144961055304 -0.00333266970899 0
0.00133953367718 -0.00287624988142 0
0.00123232328433 -0.00248514434265 0
0.00113122648221 -0.00214560981497 0
0.00102914150385 -0.00184577044082 0
0.000934814232839 -0.00158350541796 0
0.000838442995644 -0.0013554008829 0
0.000751707428934 -0.00115637655888 0
0.0006680098995 -0.000984077371824 0
0.000592732412128 -0.000831214253117 0
0.000518953242981 -0.000698430942798 0
0.000448766530665 -0.000583540249742 0
0.000386518636947 -0.000482894002649 0
0.000328136679486 -0.000397008251175 0
0.000275217022094 -0.000321609426748 0
0.000226086965049 -0.000257442496752 0
0.000183243959053 -0.000201350593147 0
0.000143745190744 -0.000154078984664 0
0.000109731084982 -0.00011238487255 0
7.94078643366e-05 -7.69407711945e-05 0
5.29650083253e-05 -4.6537736146e-05 0
3.16951930607e-05 -1.89750977021e-05 0
1.36160314722e-05 4.96840833073e-06 0
-4.65484175515e-07 2.81188280228e-05 0
-1.12194578828e-05 4.92201905066e-05 0
-1.86628863076e-05 7.0948731563e-05 0
-2.33088490389e-05 9.27717209291e-05 0
-2.57044931364e-05 0.000115910356715 0
-2.6520851671e-05 0.000140684758918 0
-2.6372987034e-05 0.000167086879342 0
-5.424238444e-05 0.000194821774463 0
-8.63956149859e-05 0.000194722653478 0
-0.000124110412114 0.000192992237742 0
-0.000168148608607 0.000188312986427 0
-0.000217266738774 0.00017661096095 0
-0.000267764488618 0.000156479590546 0
-0.000318134265805 0.000126215072185 0
-0.000356763383165 8.37611679498e-05 0
-0.000374376912764 3.25385269631e-05 0
-0.00035951271814 -2.52291785849e-05 0
-0.000289689452676 -7.12248650853e-05 0
-0.000170121311936 -8.29218612457e-05 0
-0.000514922955207 -0.000117059079815 0
8.20547109756e-05 1.13724016986e-05 0
-0.000927184892464 -0.00119883017929 0
-0.000637799485371 -0.00420998492363 0
0.000980213329257 -0.00289936432502 0
0.000664697494674 -0.00054146823226 0
0.000272513463646 2.51875078881e-05 0
0.000136248568816 4.97127166643e-05 0
-0.000242654086059 4.13533316661e-05 0
0.00010555279523 -7.04171344781e-06 0
0.000112221339778 3.88619016404e-05 0
0.00014919768747 7.85228609059e-05 0
-0.000409382960907 -0.000475592172593 0
-0.000928770201643 -0.00324674117624 0
0.000246897048154 -0.000109799747984 0
0.000445246847817 -0.00656674665704 0
0.000600651274426 -0.001600623965 0
-0.00023068777419 -0.000103202573395 0
0.000110360176349 1.68732547989e-05 0
0.000120339825767 6.18398217818e-05 0
-0.000258356564281 -0.00117626831676 0
0.000112604813242 6.56569710057e-05 0
-0.000818808077666 -0.00650089431292 0
0.000101597665479 -0.00072313124868 0
0.000687128831886 -0.00459919990004 0
0.00011513679236 7.79742260888e-05 0
-9.40598589489e-05 -0.00223728415724 0
4.74589963097e-05 -1.0016141386e-05 0
-0.000151816927768 -0.00946546029972 0
-6.18347032907e-06 -0.000279480860921 0
9.68296423789e-05 -0.0026164451462 0
8.87092418759e-05 2.22141753364e-05 0
0.000119278168882 3.37853759966e-05 0
-0.000128579366665 0.000102540291974 0
0.000119077506174 -1.98296905854e-05 0
7.36437853419e-05 -7.98158518946e-06 0
-0.000415800641602 9.69218221931e-06 0
-4.95509685335e-05 -0.000316680026151 0
0.000118660775089 5.35767332851e-06 0
-0.000108107805599 -1.47696992732e-05 0
0.000198996874229 4.01760614634e-05 0
0.000472147519747 -0.00013594657414 0
0.000346869846193 -0.00347270669002 0
0.00092300568958 -0.00124049469039 0
-0.00100703731183 -0.00222254358354 0
9.81395033084e-05 8.30476876359e-05 0
-0.00027678244942 -0.00410785575137 0
0.000511116640054 -0.00815920023504 0
-9.81605111017e-05 -0.00138962184203 0
0.000120672822418 5.07099499596e-05 0
-0.00072772298373 -0.000432305403386 0
4.46071779247e-05 -0.000718571377156 0
-3.99701573908e-05 -0.000112533856665 0
-9.70784715876e-05 4.59130927519e-05 0
0.0001216340942 -7.12187187997e-06 0
0.000122121352301 2.17242269626e-05 0
-2.1952925471e-05 -0.000149075476958 0
0.000217983564564 9.98295506708e-06 0
-0.000356551173647 -0.00644452891035 0
0.000335525585818 -0.000365817433781 0
0.000843878521615 -0.00282433057854 0
-0.000762081458795 -0.00186563886437 0
-0.00040272138973 -4.97047644347e-05 0
4.10878848684e-05 -2.46211963769e-07 0
0.000673425293825 -0.00109805436204 0
0.000221532606505 -1.54158203778e-05 0
-0.000785864094533 -0.000806988741868 0
-0.000451789187257 -0.00155428853535 0
0.000112007876902 1.60424918995e-05 0
0.00061963240955 -0.000390609156096 0
0.000117677633362 6.70817433787e-05 0
0.000243813623284 -0.00141554833468 0
3.70297537252e-05 4.76087241715e-05 0
-0.000368100396121 -0.00872952331957 0
-0.000204839390887 -0.000568934562547 0
5.81331893609e-05 -0.00570887615871 0
9.45802410355e-05 4.68250710078e-06 0
-0.000366481377513 -2.72157931479e-05 0
0.000134797740639 6.77556043051e-05 0
0.00011938811142 4.90023710074e-05 0
0.000101361935778 8.12497599013e-05 0
-0.000396844340247 -0.00351286539547 0
-0.000247053647989 9.85311979182e-05 0
0.000103708548699 -2.20776268341e-05 0
-0.000463865087617 -0.000224786505272 0
-0.000579840287548 -0.000185582636921 0
-0.000588326449809 -0.000318752929105 0
6.2635726857e-05 7.39367853092e-05 0
0.000100552312626 2.30947020138e-05 0
0.000128913245275 -0.00565866578891 0
-0.000398376348758 -0.00190236359093 0
0.000295405675595 -0.00310751661362 0
0.000145989233666 -0.0103351463082 0
-0.000377738658258 -0.00100677841191 0
-0.000625668708165 -0.000930613955364 0
0.000194714900888 6.20981839798e-05 0
-0.000970011881465 -0.00468177628398 0
0.000921177139409 -0.00449356713842 0
0.000546980844549 -0.00085101027616 0
5.89163690393e-05 8.60403196195e-06 0
0.000123949776727 4.29663023295e-05 0
0.000157589801426 -0.000507237146283 0
0.000423178171303 -0.000157921954622 0
4.66936393307e-05 -0.00149937339656 0
-0.000172983103907 -0.00022007075479 0
-6.52836905677e-05 -4.77181787021e-05 0
0.000126088115521 1.35296275979e-05 0
4.96305389994e-06 -7.68388091999e-05 0
4.83728320941e-05 -1.12305875271e-05 0
-0.000373754545156 -3.35733355512e-06 0
0.000111940800027 7.37522582619e-05 0
0.000121647798129 5.9263081092e-05 0
0.000506046565233 -0.00197515586998 0
0.000359949312754 -0.00103858531745 0
-8.67481869843e-05 -0.0111202237711 0
0.000125863900635 3.03576235168e-05 0
0.000163726878476 6.24498981974e-05 0
8.68525358557e-05 -2.00896483149e-05 0
-0.000351565445529 6.38084078769e-05 0
6.32559048642e-05 8.18224491833e-06 0
0.000109584094528 -0.000268383122864 0
-0.000628605156304 -0.0026532710784 0
-2.30587437789e-05 7.83138308737e-06 0
-0.000218290603335 -0.000365464656459 0
0.000115958830042 8.3373969755e-05 0
8.40323224751e-05 8.11507988245e-05 0
-4.90500047182e-05 -0.00801111614842 0
0.000125885586931 1.13463168492e-06 0
-4.29952866384e-05 4.08229673489e-06 0
0.000764374206367 -0.00225424365994 0
0.000347480114301 -3.18886287988e-05 0
-8.04939869969e-05 0.000137099394493 0
0.000125906073989 -2.62008671046e-05 0
0.000346653749136 -6.66084652581e-05 0
0.000143814736709 -0.00516975614943 0
0.000921203259312 -0.00184175978572 0
-0.00104209132872 -0.00235163806766 0
0.000118230279258 5.1041992966e-05 0
-0.000316932984161 -0.000755137598238 0
0.000101314607839 2.96117297694e-05 0
0.000134671631724 7.80289312312e-05 0
-0.000879101889089 -0.00470436424754 0
0.000290442139662 -0.00109386567328 0
0.000805861618287 -0.00610782783204 0
0.000173925092065 1.33579293902e-05 0
0.000794754704029 -0.000858440725576 0
-0.000794541173441 -0.00142867630356 0
0.000422675272783 -0.000209348259067 0
-6.7112246568e-05 8.45758534519e-05 0
0.000126934337182 -1.58756133388e-05 0
0.000106735337644 4.05106430466e-06 0
-0.000245300406362 -1.00832301507e-05 0
-0.000259492358196 -0.000233556069032 0
0.000109834601187 2.72292026396e-05 0
0.000618367544839 -0.000307989131939 0
0.000531128506804 -0.00414732259549 0
-0.000531237173669 -0.00140850240645 0
-0.000214294282132 -0.00302988138513 0
0.000111158742812 2.81489119849e-05 0
-0.000868512373828 -0.000722177379735 0
0.00011749756856 4.24120127603e-05 0
9.18124274951e-05 -7.52517249603e-06 0
-0.000345535330737 3.0347588411e-05 0
-0.000150351433071 -0.000497180249183 0
0.000124780886482 5.0773977827e-05 0
-0.000644236057781 -0.000530370753238 0
0.000306300510094 -0.000725476402403 0
0.000189643427875 6.15238268587e-05 0
0.000104826733237 -6.93345651636e-05 0
-0.000509962010043 -0.00308591504807 0
0.000334635825199 -0.00823644813898 0
0.000249909682224 -0.00185846522858 0
0.000399698228777 -0.00113086046238 0
-0.000467221785686 -4.34434363459e-05 0
6.56603522573e-05 1.06171912059e-06 0
0.000267436264702 -5.68007390687e-05 0
0.000113600301456 -1.27325022414e-05 0
-0.000171262624494 6.95348987306e-05 0
8.28537851719e-05 1.70856452915e-05 0
0.000951135613656 -0.00170849524993 0
0.000255900240692 1.72573024205e-05 0
-0.000989150810792 -0.0014174021106 0
0.000153240479688 3.46941953003e-05 0
-0.000749388824824 -0.00268432986926 0
0.000788397802934 -0.000671776390268 0
0.000769459651677 -0.00382756479843 0
0.00035951044013 -0.00345625966464 0
0.000119414883287 7.00753914431e-05 0
0.000117256281043 1.34250265877e-05 0
-0.0001176633089 -6.98117753272e-05 0
0.000139020374371 7.60828517401e-05 0
0.00011422447442 -2.31737881176e-06 0
-0.00016213048586 2.46365582507e-05 0
-0.000192753217754 -0.00167935979288 0
8.86646155103e-05 3.76042881584e-05 0
-0.000561527143406 -0.00826051197623 0
1.54363900285e-05 -0.000460850655967 0
6.82258677594e-05 -1.93798875509e-05 0
-0.000395404296642 2.82538138109e-05 0
-0.000676663082484 -0.00456459181028 0
-0.000180153842635 0.000130201537714 0
0.000112397083469 -2.65562606269e-05 0
2.99357361059e-05 5.93584289651e-05 0
0.000181485236754 -0.00754259534591 0
-0.000411516238315 -0.000757539396787 0
-0.00037292724368 -0.000100665327921 0
-0.00060140589209 -0.00025931506989 0
0.000194308866489 -0.00022587503225 0
9.99287309677e-05 1.44846391783e-05 0
-0.000128081717516 -0.000122562627918 0
0.000112224460089 3.73602435461e-05 0
0.000809054760443 -0.00117577300677 0
-0.00104083333176 -0.00317980924031 0
7.14650237899e-05 6.71260120683e-05 0
-0.000530321943588 -0.00683299842386 0
-0.00013647551423 -0.000770184592931 0
0.00010473017178 7.74939987109e-05 0
0.00063345415499 -0.00489951004503 0
3.94988237404e-05 4.89063932384e-06 0
0.000127027662128 2.18436065065e-05 0
6.35592559598e-05 -0.00015819514124 0
0.000630149682031 -0.00244480081014 0
-3.32182443854e-05 -0.0117420033857 0
7.0093867222e-05 7.84390821552e-05 0
-6.37027866956e-05 -0.00986943815812 0
0.000127292533446 3.56753381925e-05 0
0.000126926562805 -7.06012978985e-06 0
-5.41439868192e-05 4.35543576602e-05 0
0.000185361269599 -0.000363045786472 0
0.000124839831207 5.97741263268e-05 0
0.000127519670177 7.92883058758e-06 0
-3.39123711265e-06 -3.83134579557e-05 0
-0.000610030614311 -0.00129113165915 0
0.000185912238304 5.00514028346e-05 0
-0.000796408486163 -0.00588066130871 0
0.00041329824661 -0.000617719568336 0
0.00091468217815 -0.00388094055345 0
3.14872886935e-05 1.71444607078e-06 0
-0.000327851193825 -8.37585774678e-05 0
0.000119736314831 5.88544163551e-05 0
0.000127123697943 -0.00432759079026 0
-3.028005102e-05 -0.00100334579678 0
5.32632412965e-05 -0.000166848590386 0
-6.51894491911e-05 -0.00763400222911 0
0.000562718623114 -0.00241557525648 0
-0.000619113872517 -0.00234416352016 0
-0.000234250189785 -2.109090713e-05 0
2.23895274793e-05 -3.70419107551e-06 0
-0.000406707194934 -0.000158573416422 0
0.000116836185039 2.67356375521e-05 0
-0.000132243725303 -0.000209035305972 0
0.000234676479115 4.47485209774e-05 0
0.000162296026756 -1.54932547828e-05 0
0.000632091041667 -0.00630408329563 0
-0.00082386223738 -0.000751916923752 0
9.57542271204e-05 7.88669274049e-05 0
-0.000568353772746 -0.00528574100695 0
-3.69447174902e-05 -0.00103325476544 0
9.78940566605e-05 -1.35087355114e-05 0
-0.00029592854765 5.83575192006e-05 0
0.00011804805529 6.65203689024e-05 0
9.88613405591e-05 8.36694607417e-05 0
8.24835295261e-05 -2.53829910706e-07 0
-0.000421050734503 -1.39111009551e-05 0
0.000523602458079 -0.00143493890562 0
1.16815904047e-05 4.61006103073e-05 0
9.01561671653e-06 -0.00917370938412 0
-0.000609698268693 -0.00556926251173 0
-0.000355558698189 -0.000600747573538 0
0.000564082966195 -0.000295212834326 0
0.000126198554156 7.30627080735e-05 0
9.35757356499e-05 -2.64069368741e-05 0
-0.000309431783496 9.72281786849e-05 0
0.000371836718768 -4.39998091698e-05 0
7.40369835736e-05 -1.01793261602e-06 0
0.000111209525126 3.97190155301e-05 0
0.000428460338005 -0.000301759232218 0
0.00044723294746 -0.000120713270314 0
-0.000377791070736 -0.000670381554409 0
0.000323876371638 -0.00236894031324 0
-0.000528994999039 -0.000118972511643 0
-0.000156543322328 -0.00408544053157 0
-0.000506883751353 -0.000358454085587 0
0.000126989840051 8.29235128489e-05 0
-0.000506313143807 -0.000356904135983 0
-0.000229872614104 -2.52914111793e-05 0
2.54514667967e-05 -1.22316475359e-05 0
0.000127678525739 -2.1342658189e-05 0
-6.65138097196e-05 0.000111344142137 0
0.000114528159603 3.46863512337e-05 0
0.000396682646482 -0.000187423986358 0
-0.000164326152876 -0.00102297560673 0
-0.000130483877154 0.000148528539917 0
0.000118932193253 -2.88022541218e-05 0
-0.000539255209037 -0.000575805028003 0
6.36889858898e-05 7.74445083129e-06 0
-0.00069183958272 -0.000345200828729 0
0.000525717954621 -0.000607215600062 0
0.000138500691398 -9.86919000664e-06 0
-0.000959901171719 -0.0016612498984 0
-0.000241668361586 -0.000326581138219 0
0.000285970302184 9.74382554499e-06 0
0.000999723931197 -0.00254675637107 0
9.48583323099e-05 7.91888831567e-05 0
-0.00096278168087 -0.00354794330413 0
2.63060794609e-05 -5.71030437814e-05 0
9.98452853401e-05 -1.14645573138e-06 0
-0.000301898563437 1.1742604545e-05 0
5.59043994288e-05 4.65454503969e-06 0
0.000520492164417 -0.000361205442922 0
-0.000874318293169 -0.00228307163947 0
-0.00039954767645 -0.00488350555906 0
4.52514130471e-05 -0.0065691192928 0
0.000728705290025 -0.0022278099942 0
-0.000822651288795 -0.00239905158623 0
0.000243668298865 -3.58831448012e-05 0
-7.35923176384e-05 -1.95293152751e-05 0
-0.000281571499558 -0.000310377761165 0
6.5798369923e-05 1.19817918708e-05 0
0.000120194447123 -1.34564656418e-05 0
-0.000115714526693 7.43356010577e-05 0
0.000787564087179 -0.00346025785063 0
0.000737558472741 -0.00499006467093 0
-0.000670700844708 -0.00169715103285 0
-0.000585315726756 -0.00116041846246 0
-0.000424559941536 -6.36384356038e-06 0
6.10146358169e-05 -6.52188632801e-06 0
0.000132341076937 5.82237971195e-05 0
0.00011335664255 -1.95196183257e-05 0
-0.000173408408069 9.80098392906e-05 0
0.000106594706438 2.92965901661e-05 0
4.26450523607e-05 6.84468316324e-05 0
-0.000338648417646 -0.0120399923645 0
-0.000927764871657 -0.00389329139673 0
0.000718269956632 -0.000820208041091 0
0.000126851288182 4.58875343603e-05 0
0.000216047842019 -0.000333425602213 0
0.000310103124618 -0.000595727550357 0
-6.43895410854e-05 0.000157603965252 0
0.000128437558292 -2.97066041161e-05 0
0.000626196819358 -0.00736285850197 0
0.000235494935366 -0.00142371068833 0
-0.000691355601073 -0.00389338651081 0
-0.00028244723496 -5.86225067436e-05 0
9.34685976625e-05 2.20438358296e-05 0
0.000106839518436 1.03921443846e-05 0
0.000120115346482 -1.83126786589e-06 0
-0.000103697793256 2.21757340876e-05 0
0.000120733825932 3.93820057086e-05 0
0.000125099416571 5.45073091234e-05 0
0.000448932471911 -0.00087621799106 0
0.00014565049033 6.07484955855e-05 0
0.000166458841177 7.36559788878e-05 0
-0.00101096870506 -0.00396276275188 0
0.000786827969488 -0.00539550587227 0
0.000575143041741 -0.00119149170014 0
-0.000506036232343 -0.000677159423639 0
0.000747846043954 -0.00338833648797 0
-0.000806738263848 -0.0012202906371 0
0.000157127074702 3.55490808483e-05 0
-0.000516928791072 -0.00162888755436 0
-0.000591331631976 -0.00710734197152 0
0.00011340321209 8.41946594e-06 0
0.000237818959943 3.94770736197e-05 0
-0.000173579740934 -3.11260472033e-05 0
-0.000763405503418 -0.0049086761457 0
0.000986659925083 -0.00346313268194 0
0.000565793562421 -0.00059564008634 0
0.000112065863715 8.14429177535e-05 0
0.000123711284126 7.91894502009e-05 0
-7.47524641332e-05 -0.00272823158336 0
0.000109461446107 -0.0096682547669 0
-1.79077480031e-05 -0.00208274463732 0
-0.000133869195381 -8.77179462575e-05 0
-0.000201938857738 -0.000177948006509 0