# vtk DataFile Version 2.0
Generated with Solid Solver
ASCII
DATASET UNSTRUCTURED_GRID
POINTS 1163 float 
0.0 3.5 0.0
2.2 3.5 0.0
2.2 4.0 0.0
0.0 4.0 0.0
0.0687499999999 3.5 0.0
0.1375 3.5 0.0
0.20625 3.5 0.0
0.275 3.5 0.0
0.343749999999 3.5 0.0
0.412499999999 3.5 0.0
0.481249999999 3.5 0.0
0.549999999999 3.5 0.0
0.618749999998 3.5 0.0
0.687499999998 3.5 0.0
0.756249999998 3.5 0.0
0.824999999998 3.5 0.0
0.893749999998 3.5 0.0
0.962499999997 3.5 0.0
1.03125 3.5 0.0
1.1 3.5 0.0
1.16875 3.5 0.0
1.2375 3.5 0.0
1.30625 3.5 0.0
1.375 3.5 0.0
1.44375 3.5 0.0
1.5125 3.5 0.0
1.58125 3.5 0.0
1.65 3.5 0.0
1.71875 3.5 0.0
1.7875 3.5 0.0
1.85625 3.5 0.0
1.925 3.5 0.0
1.99375 3.5 0.0
2.0625 3.5 0.0
2.13125 3.5 0.0
2.2 3.56430812579 0.0
2.2 3.6227083524 0.0
2.2 3.67574343203 0.0
2.2 3.72390623714 0.0
2.2 3.76764438299 0.0
2.2 3.80736436348 0.0
2.2 3.84343531161 0.0
2.2 3.87619247056 0.0
2.2 3.90594026646 0.0
2.2 3.93295517223 0.0
2.2 3.9574882542 0.0
2.2 3.97976750927 0.0
2.18000003888 4.0 0.0
2.15999995974 4.0 0.0
2.13999995594 4.0 0.0
2.12000003893 4.0 0.0
2.0999999813 4.0 0.0
2.07999993507 4.0 0.0
2.06000001965 4.0 0.0
2.04000002354 4.0 0.0
2.01999993997 4.0 0.0
1.99999999426 4.0 0.0
1.98000004623 4.0 0.0
1.95999996625 4.0 0.0
1.93999996787 4.0 0.0
1.92000005069 4.0 0.0
1.90000001292 4.0 0.0
1.87999994967 4.0 0.0
1.86000003245 4.0 0.0
1.84000003166 4.0 0.0
1.81999995194 4.0 0.0
1.80000002065 4.0 0.0
1.78000005962 4.0 0.0
1.75999997703 4.0 0.0
1.73999998149 4.0 0.0
1.72000006236 4.0 0.0
1.70000000651 4.0 0.0
1.67999995967 4.0 0.0
1.66000004242 4.0 0.0
1.64000004304 4.0 0.0
1.61999996152 4.0 0.0
1.6000000096 4.0 0.0
1.58000006667 4.0 0.0
1.55999998704 4.0 0.0
1.53999998381 4.0 0.0
1.52000006764 4.0 0.0
1.5000000299 4.0 0.0
1.47999996242 4.0 0.0
1.46000004337 4.0 0.0
1.4400000454 4.0 0.0
1.41999996386 4.0 0.0
1.40000002834 4.0 0.0
1.38000006734 4.0 0.0
1.35999998576 4.0 0.0
1.33999998537 4.0 0.0
1.32000006658 4.0 0.0
1.30000001585 4.0 0.0
1.27999996279 4.0 0.0
1.26000004759 4.0 0.0
1.24000004493 4.0 0.0
1.2199999616 4.0 0.0
1.20000000906 4.0 0.0
1.18000006792 4.0 0.0
1.15999998616 4.0 0.0
1.13999999119 4.0 0.0
1.12000007157 4.0 0.0
1.1 4.0 0.0
1.07999992843 4.0 0.0
1.06000000881 4.0 0.0
1.04000001384 4.0 0.0
1.01999993209 4.0 0.0
0.999999990948 4.0 0.0
0.98000003841 4.0 0.0
0.959999955072 4.0 0.0
0.939999952416 4.0 0.0
0.920000037214 4.0 0.0
0.899999984154 4.0 0.0
0.879999933427 4.0 0.0
0.860000014636 4.0 0.0
0.840000014246 4.0 0.0
0.819999932662 4.0 0.0
0.79999997166 4.0 0.0
0.780000036145 4.0 0.0
0.759999954604 4.0 0.0
0.73999995663 4.0 0.0
0.72000003758 4.0 0.0
0.699999970103 4.0 0.0
0.679999932361 4.0 0.0
0.660000016189 4.0 0.0
0.640000012962 4.0 0.0
0.61999993333 4.0 0.0
0.599999990406 4.0 0.0
0.58000003848 4.0 0.0
0.559999956964 4.0 0.0
0.539999957581 4.0 0.0
0.520000040329 4.0 0.0
0.499999993489 4.0 0.0
0.479999937647 4.0 0.0
0.460000018512 4.0 0.0
0.440000022972 4.0 0.0
0.419999940378 4.0 0.0
0.399999979352 4.0 0.0
0.380000048063 4.0 0.0
0.359999968347 4.0 0.0
0.339999967553 4.0 0.0
0.320000050328 4.0 0.0
0.299999987077 4.0 0.0
0.279999949312 4.0 0.0
0.260000032129 4.0 0.0
0.240000033752 4.0 0.0
0.219999953776 4.0 0.0
0.200000005737 4.0 0.0
0.180000060031 4.0 0.0
0.159999976465 4.0 0.0
0.139999980354 4.0 0.0
0.120000064926 4.0 0.0
0.100000018697 4.0 0.0
0.0799999610675 4.0 0.0
0.0600000440571 4.0 0.0
0.0400000402596 4.0 0.0
0.0199999611169 4.0 0.0
0.0 3.97976750927 0.0
0.0 3.9574882542 0.0
0.0 3.93295517223 0.0
0.0 3.90594026646 0.0
0.0 3.87619247056 0.0
0.0 3.84343531161 0.0
0.0 3.80736436348 0.0
0.0 3.76764438299 0.0
0.0 3.72390623714 0.0
0.0 3.67574343203 0.0
0.0 3.6227083524 0.0
0.0 3.56430812579 0.0
0.249757963562 3.75212589829 0.0
1.94999996706 3.74954522137 0.0
0.488710285893 3.75947702441 0.0
0.726520490699 3.7655965719 0.0
0.967283134849 3.7597072979 0.0
1.20619032017 3.75831098673 0.0
1.45842774915 3.76733088374 0.0
1.69012076678 3.7622332834 0.0
0.130754044069 3.86878249167 0.0
2.06924595593 3.86878249167 0.0
1.8299999918 3.84622455633 0.0
1.56816462369 3.85034872999 0.0
0.369913859351 3.84868157925 0.0
0.608733620231 3.84706187144 0.0
1.33069778866 3.84790908234 0.0
0.84323446252 3.84762979148 0.0
1.08873170817 3.84705870913 0.0
0.250539365135 3.87785524304 0.0
1.94967747948 3.87849609822 0.0
1.73218750075 3.8916046151 0.0
0.468661874066 3.89189322974 0.0
1.47574192429 3.89639134117 0.0
0.704258110321 3.8963912684 0.0
1.18331258449 3.8976320365 0.0
0.949999953744 3.89208018478 0.0
1.64795374468 3.91749779939 0.0
0.548928463645 3.91905583847 0.0
1.38619509199 3.91928594438 0.0
0.788926872841 3.91906062101 0.0
1.27071160784 3.91777932845 0.0
1.02999997296 3.91685174433 0.0
1.81733541416 3.69950870754 0.0
1.86999999106 3.91823503401 0.0
0.071252620538 3.93011431841 0.0
2.12874737946 3.93011431841 0.0
2.07400690796 3.74293885365 0.0
0.125993092043 3.74293885365 0.0
0.32995676804 3.92118147353 0.0
2.00999996712 3.92542383197 0.0
0.190000032884 3.92542383197 0.0
1.56698738743 3.72218882919 0.0
1.33000000474 3.72531695685 0.0
0.848014510843 3.71986098938 0.0
1.09024665585 3.72285801424 0.0
0.610276609989 3.72290563624 0.0
1.54999998543 3.92414142844 0.0
0.629999973146 3.92414137652 0.0
0.869999974031 3.92414141814 0.0
1.11000003579 3.92414141267 0.0
1.79030638642 3.92649353654 0.0
0.370434802927 3.72513294336 0.0
0.410903135411 3.92892991244 0.0
1.33000002597 3.93737911571 0.0
0.129927648482 3.94112154503 0.0
2.07007235152 3.94112154503 0.0
1.93000000928 3.93875927586 0.0
0.26999999072 3.93875927586 0.0
1.40966706061 3.83880068991 0.0
0.770332962441 3.83880062149 0.0
1.24904900022 3.84293377683 0.0
1.01033287484 3.83880060723 0.0
0.530342681434 3.83880307444 0.0
0.189895273961 3.63486992823 0.0
2.00989835291 3.62845703161 0.0
0.998888153878 3.61665036233 0.0
1.47894673873 3.61675180774 0.0
0.51733910646 3.62937665489 0.0
0.705112628302 3.618743723 0.0
1.66672137035 3.63168728155 0.0
1.18508242495 3.61871739348 0.0
1.71000003443 3.94408608591 0.0
0.489999965568 3.94463856597 0.0
1.44983363802 3.94422347836 0.0
0.729999997105 3.94465012565 0.0
1.21016639734 3.94422345842 0.0
0.928621800545 3.94440037102 0.0
2.00626203014 3.81543543551 0.0
0.193627962274 3.81528928332 0.0
1.66628164144 3.83559795895 0.0
1.75661718781 3.81065958113 0.0
1.61143779865 3.94859227761 0.0
0.991673865748 3.95161238438 0.0
0.0604617941233 3.86281264864 0.0
2.13953820588 3.86281264865 0.0
0.300965570716 3.8114148258 0.0
0.2970894797 3.66361086085 0.0
0.398842167194 3.60449226805 0.0
1.51000004877 3.95218393067 0.0
1.90135619383 3.81213273629 0.0
0.669405272842 3.95495208979 0.0
1.07142780558 3.94866325309 0.0
0.592085094025 3.94901139323 0.0
0.831051660929 3.94633985879 0.0
1.14940528892 3.9549521224 0.0
0.44409344258 3.82719938178 0.0
1.49646539728 3.82376850413 0.0
0.683434082651 3.82631713605 0.0
0.92337834777 3.8234861632 0.0
1.16343437877 3.82631615351 0.0
1.90749084149 3.65350700271 0.0
1.8278758005 3.95083911942 0.0
0.37243073327 3.95235211027 0.0
1.29345662549 3.60569899261 0.0
0.813407949226 3.60572380122 0.0
1.29317153636 3.96216077293 0.0
1.367704599 3.96055764734 0.0
1.97071235041 3.96038324024 0.0
0.22928764959 3.96038324024 0.0
2.10610581798 3.66047411138 0.0
0.0938941820177 3.66047411138 0.0
1.67000000105 3.95862953468 0.0
1.74869816704 3.96079301687 0.0
0.531976761939 3.96138655466 0.0
0.451361042387 3.96112774725 0.0
0.771976832233 3.96138887156 0.0
1.88843481911 3.95881554986 0.0
1.61277513709 3.78538823015 0.0
2.13311214501 3.79435403671 0.0
0.0668878549946 3.79435403671 0.0
1.76678797151 3.60286552601 0.0
0.311702446283 3.9611157379 0.0
1.02877762737 3.96159282031 0.0
1.40830122607 3.96143175203 0.0
1.25214210333 3.957355862 0.0
1.59476493393 3.9048774062 0.0
1.56950979124 3.96148017208 0.0
0.890017020275 3.96125792969 0.0
2.03089110475 3.96040268709 0.0
0.169108895255 3.96040268709 0.0
0.939722125942 3.68539157065 0.0
1.41686981874 3.69192854313 0.0
0.0426348006718 3.96101756902 0.0
2.15736519933 3.96101756902 0.0
1.36077308019 3.79177204211 0.0
0.817982383499 3.78962669257 0.0
1.05834720932 3.78780184893 0.0
0.578349529346 3.78781530011 0.0
1.77992711518 3.87652731382 0.0
0.417982153133 3.87594990465 0.0
1.84363633012 3.77741329286 0.0
1.52244994479 3.87704541475 0.0
0.657426528912 3.87734838249 0.0
1.13742651778 3.87734834025 0.0
0.898116026439 3.8800466833 0.0
1.56984259435 3.64465823131 0.0
1.08983016076 3.6446495206 0.0
0.609942357805 3.64483976081 0.0
1.29451769374 3.79627773068 0.0
0.0893439668432 3.96574839433 0.0
2.11065603316 3.96574839433 0.0
2.01422398896 3.86980625824 0.0
0.185776011038 3.86980625824 0.0
0.305957237756 3.87340573745 0.0
1.72977480551 3.68665973332 0.0
1.25418096296 3.69351129461 0.0
0.629999973146 3.96272981435 0.0
1.11000003579 3.96272983221 0.0
0.772975283819 3.69297597031 0.0
1.89089074715 3.86951346173 0.0
0.445448577516 3.69456159386 0.0
1.82621986864 3.89678318705 0.0
2.07135424223 3.81165410377 0.0
0.128645757768 3.81165410377 0.0
0.373320289473 3.89968791662 0.0
1.79000004014 3.96541718891 0.0
0.383302070088 3.78976392323 0.0
0.409457623385 3.96502881851 0.0
1.55531527123 3.78787141386 0.0
1.34861332978 3.89383287415 0.0
0.593245985735 3.89483466551 0.0
0.833245353375 3.89479604398 0.0
1.0732444554 3.8948349405 0.0
0.911896623122 3.59194725763 0.0
0.187580554011 3.70699710313 0.0
2.01241944599 3.70699710313 0.0
1.39201907571 3.59233063354 0.0
2.09635520798 3.90516200201 0.0
0.103644792024 3.90516200201 0.0
1.89086147526 3.72621461413 0.0
1.02102684616 3.70044819701 0.0
1.49813234221 3.70194667869 0.0
0.53965669049 3.70593418829 0.0
1.63719578665 3.69772473547 0.0
0.685447658936 3.70127585046 0.0
1.16541741817 3.70128744764 0.0
0.901649266036 3.76287226775 0.0
0.992351690321 3.90662993531 0.0
1.69131894868 3.90657323657 0.0
1.9699561555 3.91599371502 0.0
0.230043844497 3.91599371502 0.0
1.61980840676 3.85005402918 0.0
2.04685187594 3.90639759008 0.0
0.153148124058 3.90639759008 0.0
0.512139828486 3.90538520837 0.0
1.43057458921 3.90702644399 0.0
0.749149996349 3.90689574876 0.0
[...]
POINT_DATA 1163
VECTORS Displacement float
0.0 0.0 0
0.0 0.0 0
0.00806515197065 -0.00196016110673 0
-0.0117918841964 -0.00184850750158 0
0.0 0.0 0
0.0 0.0 0
0.0 0.0 0
0.0 0.0 0
0.0 0.0 0
0.0 0.0 0
0.0 0.0 0
0.0 0.0 0
0.0 0.0 0
0.0 0.0 0
0.0 0.0 0
0.0 0.0 0
0.0 0.0 0
0.0 0.0 0
0.0 0.0 0
0.0 0.0 0
0.0 0.0 0
0.0 0.0 0
0.0 0.0 0
0.0 0.0 0
0.0 0.0 0
0.0 0.0 0
0.0 0.0 0
0.0 0.0 0
0.0 0.0 0
0.0 0.0 0
0.0 0.0 0
0.0 0.0 0
0.0 0.0 0
0.0 0.0 0
0.0 0.0 0
0.00157487853352 -0.00135576684654 0
0.00287838649381 -0.00190402401045 0
0.00399848086767 -0.00212825938212 0
0.00486813117982 -0.0021852515371 0
0.00554612686936 -0.00216231097193 0
0.00608317140025 -0.00210828912906 0
0.00650311617898 -0.00205810590485 0
0.0068578153214 -0.00201532681533 0
0.00715441186274 -0.00198489432365 0
0.00741521982118 -0.00196942581022 0
0.00765044106864 -0.00196224427453 0
0.00786643554571 -0.00196007427107 0
0.00806524879992 -0.00176297784447 0
0.00806413975665 -0.00156292408316 0
0.0080598422773 -0.00136106228192 0
0.00805093105294 -0.00115864567393 0
0.00803713691039 -0.00095812854929 0
0.00801862255522 -0.000762043650213 0
0.0079940681272 -0.000570714507535 0
0.00796567315288 -0.000388147228178 0
0.00793116560536 -0.000213495411879 0
0.0078938503508 -4.99419409976e-05 0
0.00784902703977 0.000103254961461 0
0.00779941446021 0.000241666610542 0
0.00774645009545 0.000364985701495 0
0.00768521340015 0.000473727990804 0
0.00762024042913 0.000563862052717 0
0.0075437287327 0.000636448854445 0
0.00746062419542 0.000685877985095 0
0.00736575173765 0.000714643699688 0
0.00726121829322 0.00071363891743 0
0.00713707413898 0.000683120182001 0
0.00700105599524 0.000617457318968 0
0.00685613469357 0.000510541315426 0
0.00668455920329 0.000369928823542 0
0.00649601874142 0.000172268305095 0
0.00627539114177 -7.56525859309e-05 0
0.00604201183448 -0.000390835394335 0
0.00576708683266 -0.000771214743471 0
0.00546860973997 -0.00124086618185 0
0.00513445842532 -0.00179779061772 0
0.00478888498083 -0.00245736243725 0
0.00440567148294 -0.0032472587921 0
0.00396033830137 -0.00414604041255 0
0.00350180443985 -0.00520038775342 0
0.00299558815755 -0.00642393176862 0
0.0024650943908 -0.00783933244655 0
0.00188978070396 -0.00945696286145 0
0.00127386762885 -0.0113257147495 0
0.000613868692807 -0.0134844554294 0
-1.67079407567e-05 -0.0159564891759 0
-0.000702430232916 -0.0188141376909 0
-0.0013358901379 -0.0220287710017 0
-0.00196459482668 -0.0257176392519 0
-0.00254206900054 -0.0299626815958 0
-0.00329434110254 -0.0349581867592 0
-0.00387677090857 -0.0402580475092 0
-0.00234579553985 -0.0507715482716 0
-0.000413679409653 -0.0603282218625 0
0.00160303317061 -0.0693030749545 0
0.00328243711405 -0.0779539298967 0
0.00487214530475 -0.0860225398298 0
0.00618785647587 -0.0936908824347 0
0.00724589276648 -0.10091028031 0
0.00804187016382 -0.107684440991 0
0.00860480018169 -0.114044451821 0
0.00885486038036 -0.119974551984 0
0.00888806997456 -0.125423246192 0
0.0087022343563 -0.130401494379 0
0.00824114312608 -0.134903453897 0
0.0075962723268 -0.13890551913 0
0.00678071070655 -0.142397933299 0
0.00578445424863 -0.145370097058 0
0.0046481845145 -0.147815533109 0
0.0033592220949 -0.149723753966 0
0.0019561642413 -0.151080960764 0
0.000470115168223 -0.151854741642 0
-0.00111615506812 -0.152118454671 0
-0.00281360350501 -0.15184284383 0
-0.00434618643983 -0.15098031987 0
-0.00577389833233 -0.14956339704 0
-0.00708031442324 -0.147596795185 0
-0.0082564316565 -0.14509278695 0
-0.00930957779311 -0.142053736253 0
-0.0101726064282 -0.138494911899 0
-0.0108436084182 -0.13442663178 0
-0.0113340444526 -0.129850325677 0
-0.011586656629 -0.124771967056 0
-0.0115857289342 -0.11926958509 0
-0.0113520119145 -0.113317432141 0
-0.0109066216153 -0.106888250677 0
-0.0101210312057 -0.10001294109 0
-0.00919296286877 -0.0926738286429 0
-0.00792273513568 -0.0849045821116 0
-0.00649602594237 -0.0766946782325 0
-0.00483470066388 -0.0678587389955 0
-0.00315960879552 -0.0586380644996 0
-0.00156685515619 -0.0486765458431 0
-0.00139917704947 -0.0415601386132 0
-0.00179141280578 -0.0356215621097 0
-0.00227960934175 -0.0307547252164 0
-0.00296951238231 -0.0265335910042 0
-0.00379823112747 -0.0229582645192 0
-0.00456606176533 -0.0198745785813 0
-0.00533768704195 -0.0172316021321 0
-0.00611958765893 -0.0149351300956 0
-0.00687330397242 -0.012972306669 0
-0.00755525179835 -0.0112780404629 0
-0.00823786447608 -0.00983793573809 0
-0.00884008739872 -0.00861054826989 0
-0.00941604962409 -0.00757069662864 0
-0.00993683574659 -0.006711572201 0
-0.0103708443476 -0.00597142603781 0
-0.0107653507527 -0.00535513166506 0
-0.0110829930983 -0.00481591000153 0
-0.0113466796444 -0.00436168205581 0
-0.0115380923433 -0.00393945280543 0
-0.0116721055659 -0.00354779439878 0
-0.0117526150551 -0.00315756020704 0
-0.0117879997799 -0.00274889680194 0
-0.0117937962379 -0.00231343760414 0
-0.0122679171303 -0.00184665075183 0
-0.0128224160716 -0.00186127422947 0
-0.0134710480115 -0.00192277922529 0
-0.0141982860774 -0.00206314891301 0
-0.0149499086345 -0.00236146001615 0
-0.0155833099357 -0.00281724393966 0
-0.0160734010411 -0.00342901526699 0
-0.016071530127 -0.00421150604161 0
-0.0153990344293 -0.00500191065754 0
-0.0137527879756 -0.00566487280196 0
-0.0106171609544 -0.00572081929704 0
-0.00615934801257 -0.00449970792482 0
-0.0185427128802 -0.00768227015358 0
0.00589141815603 6.77577942606e-05 0
-0.0232311726122 -0.0320450173157 0
-0.0137309875031 -0.065037939503 0
0.00635309484998 -0.0682015644835 0
0.0199543719544 -0.0421207689205 0
0.0161184709332 -0.0102848562743 0
0.00948953067041 -0.000710157478894 0
-0.0154870266243 -0.0044016558702 0
0.00683429026128 -0.000647280799624 0
0.00757366573848 0.000609844651905 0
0.0109697414402 -0.00369048726286 0
-0.0202221819807 -0.0199387606309 0
-0.0211151572429 -0.0687622749258 0
0.0184954135106 -0.0295788685621 0
-0.0045160784325 -0.0977985833889 0
0.0151333100795 -0.0809130567066 0
-0.0161050100331 -0.00874598094343 0
0.0071174975717 0.000302132497994 0
0.00799964339444 0.00034505935376 0
-0.0205300466928 -0.040908087582 0
0.0106406319547 -0.00958553487086 0
-0.0149836015309 -0.0997531585496 0
0.0172017930642 -0.0725765787531 0
0.00465299300236 -0.111107958055 0
0.00787207846415 -0.000899383569894 0
-0.0191673116371 -0.0676270164804 0
0.0107064605166 -0.0207635715465 0
-0.00870767606086 -0.118234059785 0
0.0152321984451 -0.0494265374379 0
0.010136549147 -0.110495926748 0
0.0064978852785 -4.17463897199e-05 0
0.00741688413363 0.000695266109286 0
-0.0135683372058 -0.00335760489764 0
0.00739108667178 -0.0012434291746 0
0.00525502679005 -0.000689133718076 0
-0.0164279330249 -0.00408348537881 0
-0.0141965055458 -0.0155970570553 0
0.00735220757188 -0.000108882281325 0
-0.0134784376498 -0.0060110190174 0
0.0123579800971 -0.00378214799 0
0.0193490890324 -0.0211433291198 0
-0.00351928788015 -0.0579815441295 0
0.0144171095799 -0.0489643926218 0
-0.0193002862826 -0.0423068436235 0
0.00798338909496 -0.00441059839413 0
-0.0173155055452 -0.0916912756366 0
-0.00212163427901 -0.124405157717 0
0.0136873007977 -0.0972575578047 0
0.00748481078219 0.000718336908983 0
-0.0208128906725 -0.0151643705564 0
-0.0149393341087 -0.0284021112934 0
0.0103181066997 -0.0324836625968 0
-0.0130520968458 -0.00441799810696 0
0.00748175619756 -0.000652081641757 0
0.00743848879675 0.000452184834183 0
-0.0125153862176 -0.0101346888142 0
0.0160935085852 -0.01651601612 0
-0.0107442085969 -0.0905414716425 0
0.020254664667 -0.0469388902633 0
0.00987982908563 -0.0888619265643 0
-0.0233286935491 -0.0501274296933 0
-0.0125176978026 -0.00359050554014 0
0.00321442710676 -0.000258740726865 0
0.00574162696966 -0.0274607287057 0
0.0108252743031 -0.005084912284 0
-0.0157614431218 -0.0179090344281 0
-0.00977635811261 -0.0259670517242 0
0.00736087149946 -0.00125386975828 0
0.0128735596511 -0.0198770913827 0
0.00725397693225 0.000167782387675 0
-0.0154759766414 -0.0509060816407 0
0.00690262416235 -0.0121418380434 0
-0.0121335921665 -0.118792575355 0
0.0130849395572 -0.0730751213094 0
0.00263573555149 -0.130397508036 0
0.00641134237213 -0.00014060139353 0
-0.0172821677463 -0.00590910950109 0
0.00951861448581 -0.000769830641166 0
0.00835372585797 0.000227084018471 0
0.00685392744652 -0.00189125382554 0
0.00705822138076 -0.127169338772 0
-0.0154187674249 -0.00340508518936 0
0.00673384835641 -0.00136885516654 0
-0.0195414545836 -0.0118520011312 0
-0.0164111287921 -0.00761116501461 0
-0.0134511290257 -0.00887261316173 0
0.00623450044218 -0.00687089330323 0
0.00691205713057 0.000393513628504 0
-0.0143285040672 -0.109460925968 0
0.0111802221242 -0.112631376228 0
-0.0160651908496 -0.0867627994967 0
-0.0052135032322 -0.130906456981 0
0.0122814647514 -0.0944868011382 0
-0.0230239531687 -0.0310588564958 0
0.0137220364148 -0.00786432081156 0
-0.0172767538787 -0.0767100904565 0
0.00264303612468 -0.0898702038513 0
0.0190026960466 -0.0624202433751 0
0.00449542020441 -8.69203172119e-05 0
0.0073840017031 0.000770617411795 0
-0.0111452873521 -0.0214542062633 0
0.0127616383204 -0.0122563106535 0
-0.00401011565998 -0.0254865501715 0
0.0076081870847 -0.0441294137835 0
0.00535108028933 -0.0241104391534 0
0.00757233480707 0.000191808520562 0
-0.0113903239295 -0.00775938455734 0
0.00365863986366 -0.000820950084693 0
-0.0131455648152 -0.00329083059112 0
0.0068160058146 -0.000444080295319 0
0.00713075871923 0.000518123188431 0
-0.0139001054748 -0.0683136927554 0
-0.0111241210438 -0.0387092698252 0
-0.00931944003501 -0.130660542484 0
0.00746721695709 0.000644804183584 0
0.0112383331541 -0.00227438037438 0
0.00593843687587 -0.00129956569382 0
-0.0164462612281 -0.00376592229557 0
0.00463565325925 -0.00051069609287 0
-0.0103198717875 -0.0137505574579 0
0.00894706474629 -0.124816899906 0
0.00502048350108 -0.0173230320676 0
0.0103989535565 -0.0597845414022 0
0.00860259065148 -0.00245706978546 0
0.00604555757056 -0.00350375181258 0
-0.000441189924191 -0.137699979305 0
0.00762435826881 -0.000290890410963 0
-0.0120629493584 -0.00542656927136 0
0.00352467959631 -0.0474888581342 0
0.0163184606765 -0.0111504407092 0
-0.0127213867464 -0.00280403044314 0
0.00768368149539 -0.00153598651562 0
0.0192013495989 -0.0216959636982 0
-0.00665411838462 -0.0783040973128 0
0.013440177504 -0.0689861536218 0
-0.0223399553565 -0.0508355341346 0
0.00785177206006 0.00059897214893 0
-0.0201816235241 -0.0286403350912 0
0.00717160876106 0.000345420747794 0
0.0108039712338 -0.00611160620241 0
-0.0181500432093 -0.0858557482357 0
0.0167946540154 -0.0792789308476 0
0.000277343021184 -0.109144679547 0
0.010128400271 -0.0030734960215 0
0.011273833341 -0.0305566577033 0
-0.0150573281323 -0.0266279117045 0
0.0206478353045 -0.0325617838537 0
-0.0124623925815 -0.00367126780371 0
0.00771667717708 -0.00105862930763 0
0.00691603908073 -0.000160279146403 0
-0.0157806390879 -0.00578968955417 0
-0.0172838087213 -0.0129052059768 0
0.00772519964745 -0.000588380615 0
0.0185160485023 -0.0261280097523 0
-0.0145470374252 -0.101166750139 0
0.0113970024218 -0.107349336155 0
-0.00887331890796 -0.0479609421046 0
0.00727061125573 0.000569422285087 0
-0.0206636661914 -0.0198989569028 0
0.00753536414435 0.000733239230377 0
0.00621490285492 -0.000672287008053 0
-0.0166511305928 -0.00433373657149 0
-0.0170141014392 -0.0213394869399 0
0.00723961378401 0.000710275285809 0
-0.0220692909441 -0.0197424635082 0
-0.00943500873906 -0.0282427544602 0
0.012741609833 -0.00442699546715 0
0.0147043485871 -0.0276586570914 0
-0.0200717723589 -0.0756051423162 0
-0.00530654369513 -0.113181897103 0
0.0131939284532 -0.0967515905444 0
0.00101824968519 -0.0223774477362 0
-0.0162476167463 -0.00477874156726 0
0.00484065975747 -0.00026986455206 0
0.0105550605026 -0.00680753081383 0
0.00716288856942 -0.000910614613378 0
-0.0143264249085 -0.00390674638429 0
0.00605392789539 0.000123844023677 0
0.00956042492157 -0.048388164128 0
0.0141399008517 -0.00656397869164 0
-0.0206380272593 -0.0313225785937 0
0.0100330938982 -0.00183458557804 0
-0.0147611196214 -0.0446556474677 0
0.0170694242526 -0.0367309608658 0
0.000787965394255 -0.0711317623977 0
0.00775684939857 -0.112168608671 0
0.0079725462952 -0.000116728286846 0
0.00730873231633 0.000195201343168 0
-0.0139540997283 -0.00768782720968 0
0.00999123466824 -0.00183130174576 0
0.00718939606977 -0.000433390162856 0
-0.0142941649399 -0.00490640514974 0
-0.0202504986029 -0.0543899536464 0
0.0108002796218 -0.0143277323373 0
-0.0117940268182 -0.109716747263 0
0.0165137849498 -0.0618734212038 0
0.00490656073478 -0.00128807633868 0
-0.015704811641 -0.0039325246098 0
0.00465060704398 -0.136130447392 0
-0.0144183472868 -0.00294352201513 0
0.00710839138423 -0.00156694628291 0
0.00482594050912 -0.00943874035154 0
-0.0127078949974 -0.120268747093 0
0.0107380111562 -0.0866307667801 0
-0.0179347511367 -0.00830384381438 0
-0.0200875251424 -0.0116260786018 0
0.0184720484902 -0.0409296831187 0
0.0067385593184 0.00020503187847 0
0.0051880393033 -0.0324039677883 0
0.00797712460101 -2.7433027002e-05 0
0.0169438168486 -0.0592572624107 0
-0.0195714179761 -0.0580751403185 0
0.00797027250083 -0.00898513798591 0
-0.0143097948238 -0.108577475709 0
0.0146202282221 -0.0807424438491 0
0.00638756869809 -0.00116969884853 0
-0.00189921502125 -0.0822071353294 0
0.00308779157626 -0.000214356034686 0
0.00754611606852 0.000446820695399 0
-0.010551816981 -0.0102431499778 0
-0.0136225229865 -0.07941244461 0
-0.00749491649161 -0.13560085205 0
0.00558934271666 -0.00491964131169 0
-0.00270253943481 -0.138923466821 0
0.00743146937985 0.000715957306918 0
0.00769477271197 -0.000653362966221 0
-0.0122130907271 -0.00447167468172 0
-0.00920641713745 -0.016629182698 0
0.00868405463258 4.59553204685e-05 0
0.00765027167622 -1.76798899699e-05 0
-0.0113471377653 -0.00658110083533 0
-0.0231584902992 -0.0402753400948 0
0.0141166447338 -0.01121236057 0
-0.0144716113095 -0.0874076609429 0
0.0197795981083 -0.0581116836601 0
0.00598406164616 -0.095044310103 0
0.00252475967219 -0.000193732343391 0
-0.008972428723 -0.00331921948013 0
0.00762359978151 0.000529114201336 0
0.00539755280301 -0.122874527808 0
-0.0175718336617 -0.0371746491655 0
0.0150807344161 -0.0380885145381 0
-0.00838600427116 -0.10308639989 0
0.0115071677937 -0.0953774359009 0
-0.0219593506756 -0.0618897949988 0
-0.0073223619637 -0.00192719970369 0
0.00180963819124 -0.000335434134928 0
-0.00987561917358 -0.00492030246623 0
0.00734706794396 0.000569970830981 0
-0.0150855365664 -0.0121877149816 0
0.0145497174512 -0.00702633730556 0
0.0152307888728 -0.0209494294646 0
0.00108527966659 -0.119978703004 0
-0.0225329386794 -0.0230257141146 0
0.00855615354097 -0.00630008264636 0
-0.0163829476037 -0.0980147389869 0
0.0150854489719 -0.0869457495362 0
0.00648460504615 -0.000958537204084 0
-0.0160883483329 -0.0039444596188 0
0.00684091637786 0.000133690927753 0
0.00745318069948 -0.00317545341162 0
0.00578384326863 -0.000341359870295 0
-0.0172240468231 -0.00499867602239 0
-0.0111837138317 -0.0526750339877 0
0.00465964934636 -0.0117328546164 0
-0.011744711363 -0.124958301813 0
0.00286750108527 -0.138729967851 0
0.0102504420127 -0.0781726284044 0
0.0202858637233 -0.0313555899542 0
0.00885253859364 -0.000661435323601 0
0.00625942314615 -0.0016079638878 0
-0.0160969228243 -0.00348575599722 0
0.0179940823264 -0.0150160974097 0
0.00456130924474 -0.00122565025108 0
0.0077812212903 0.000401469949602 0
0.0069972440417 -0.0114192297077 0
0.0164377893538 -0.0149213022899 0
-0.0070760375691 -0.01192003258 0
-0.0024166506592 -0.0412072401596 0
-0.0163645249547 -0.00632920506822 0
-0.00900253158284 -0.0627685504688 0
-0.0206703285543 -0.015871048556 0
0.00973120978158 -0.00365827335778 0
-0.0103637253404 -0.0084788596618 0
-0.00787897355778 -0.00280293714698 0
0.00200654544977 -0.000855424345954 0
0.00775662359006 -0.00131242840821 0
-0.0124649117325 -0.00322159424808 0
0.00742503612315 0.000667964821672 0
0.00958163819203 -0.0107788784232 0
-0.00518717090205 -0.0171266992494 0
-0.0135910814937 -0.00264183497084 0
0.00738564202676 -0.00166062930592 0
-0.0100535482529 -0.0116005617695 0
0.00479015800245 -6.57505523898e-05 0
-0.0179225001283 -0.011370354343 0
0.00568390323796 -0.0170098208397 0
0.00721397389018 -0.00282700412578 0
-0.0235137697807 -0.041612359648 0
-0.0174923835901 -0.0158226638901 0
0.0170605485396 -0.0135417162267 0
0.00963753630841 -0.0733102301881 0
0.00581004627809 -0.00204538145634 0
0.00662827730772 -0.135588421256 0
0.0114656473972 -0.0264282159703 0
0.00661055073201 -0.000381083410236 0
-0.0164064642039 -0.00501827671848 0
0.00391301047434 -0.000636158414231 0
0.0210019756695 -0.0395627575674 0
0.00927939050318 -0.125886916828 0
-0.0113368771061 -0.0727786372194 0
-0.00772252606399 -0.0931543830719 0
0.012351772035 -0.0866970210232 0
-0.0226260905904 -0.0589111474307 0
0.0176097097063 -0.0219680378453 0
0.00240489649525 -0.0199894551344 0
0.00545421712999 -0.05462211502 0
0.00497078814985 -0.000151330703039 0
0.00743214580754 -0.000943668832453 0
-0.013359432435 -0.00384141264048 0
-0.0136514901112 -0.0963228107796 0
-0.0135428508729 -0.110405440132 0
0.0106217145156 -0.115253539144 0
0.0107576631859 -0.10319938202 0
-0.0152964186276 -0.0037904999285 0
0.00450674313266 -0.000598548162737 0
0.00929618194628 -0.000384715194633 0
0.0071512449241 -0.00123281934631 0
-0.0143290807327 -0.00342425890393 0
0.00722016558746 0.000527618475429 0
0.00409585091262 -0.00698820921813 0
-0.00510921316971 -0.144041578092 0
-0.0170724625999 -0.0641595510646 0
0.0190145863605 -0.0526813861284 0
0.00728520348718 0.00075050379858 0
0.0191462611006 -0.0485818568866 0
-0.00808223259462 -0.0238870382212 0
-0.0124423712183 -0.00247028334297 0
0.00779510228877 -0.0016944182348 0
-0.00252999606303 -0.113035661896 0
0.0149994217778 -0.0891781541979 0
-0.0191832018517 -0.0825490518234 0
-0.0165903191758 -0.00721322235764 0
0.00664089147979 0.000296170284327 0
0.00695427651916 8.23165723298e-05 0
0.00741428196407 -0.000413751763924 0
-0.0132371388674 -0.00498181938919 0
0.00743711564224 0.000755074056588 0
0.00707785222597 0.000618496011138 0
-0.00729525581962 -0.0328281800754 0
0.010164991661 -0.00115960164496 0
0.0121800172963 -0.00554112336888 0
-0.0195177022048 -0.0731464044387 0
-0.00044633087484 -0.0936671231801 0
0.0172289651538 -0.0719576926217 0
-0.0217776537893 -0.0252870368546 0
0.00806749295421 -0.0998926307991 0
-0.0237547819674 -0.035623331382 0
0.0137795707878 -0.0142739808506 0
-0.0225441991204 -0.049329746465 0
-0.0122230614801 -0.0982727438891 0
0.00717391083901 1.3175528374e-05 0
0.0155218902694 -0.0106920014474 0
-0.0147502998279 -0.00649476920994 0
-0.0146564283575 -0.0747652610766 0
0.00585580446715 -0.0815221741168 0
0.0202660938888 -0.0506777526645 0
0.00791300592229 -0.00164310204239 0
0.00883708996356 -0.00133337844922 0
-0.018488049539 -0.0767245671556 0
-0.00662646446823 -0.122191007752 0
0.0116669760645 -0.106871843473 0
0.00225992958837 -0.0277609768556 0
0.00285084222072 -0.0376208718027 0
0.0123266871147 -0.00844283083129 0
-0.0165116766585 -0.0882102245025 0
0.0183726249022 -0.0693660700504 0
0.00329672603251 -0.1031336769 0
0.00765013362966 0.00032859035186 0
-0.0098714585826 -0.00907168018985 0
-0.0137032313801 -0.0188644589418 0
0.0104124210605 -0.00153251386306 0
0.00813270707932 -0.0153428765676 0
0.0137690201045 -0.0627102491338 0
0.00819313195 0.00039000814181 0
0.00756728600659 0.000538379090607 0
-0.0131727054103 -0.116443249237 0
0.0106233224988 -0.0949381461121 0
0.006282567182 3.59642429531e-05 0
-0.0181227946594 -0.00700592560368 0
0.0112216006235 -0.0604645962653 0
-0.0151218367769 -0.00301731191118 0
0.00683555474557 -0.00163667180685 0
-0.0190540429455 -0.015828330296 0
-0.0220798091537 -0.0405198327838 0
-0.00904174260158 -0.0118211514681 0
-0.0218997524056 -0.0349554629804 0
0.00729589454225 0.000363159016299 0
-0.014468682632 -0.00913210127892 0
0.00841065582209 -0.000161449370499 0
-0.00700102565245 -0.00201794302635 0
0.00172632230489 -0.00018309771725 0
-0.0176174999472 -0.0101038088003 0
0.0029840214834 -0.0161346968432 0
0.00762842151708 -0.00372709645396 0
0.019994171619 -0.0341704959295 0