# vtk DataFile Version 2.0
Generated with Solid Solver
ASCII
DATASET UNSTRUCTURED_GRID
POINTS 1163 float 
0.0 3.5 0.0
2.2 3.5 0.0
2.2 4.0 0.0
0.0 4.0 0.0
0.0687499999999 3.5 0.0
0.1375 3.5 0.0
0.20625 3.5 0.0
0.275 3.5 0.0
0.343749999999 3.5 0.0
0.412499999999 3.5 0.0
0.481249999999 3.5 0.0
0.549999999999 3.5 0.0
0.618749999998 3.5 0.0
0.687499999998 3.5 0.0
0.756249999998 3.5 0.0
0.824999999998 3.5 0.0
0.893749999998 3.5 0.0
0.962499999997 3.5 0.0
1.03125 3.5 0.0
1.1 3.5 0.0
1.16875 3.5 0.0
1.2375 3.5 0.0
1.30625 3.5 0.0
1.375 3.5 0.0
1.44375 3.5 0.0
1.5125 3.5 0.0
1.58125 3.5 0.0
1.65 3.5 0.0
1.71875 3.5 0.0
1.7875 3.5 0.0
1.85625 3.5 0.0
1.925 3.5 0.0
1.99375 3.5 0.0
2.0625 3.5 0.0
2.13125 3.5 0.0
2.2 3.56430812579 0.0
2.2 3.6227083524 0.0
2.2 3.67574343203 0.0
2.2 3.72390623714 0.0
2.2 3.76764438299 0.0
2.2 3.80736436348 0.0
2.2 3.84343531161 0.0
2.2 3.87619247056 0.0
2.2 3.90594026646 0.0
2.2 3.93295517223 0.0
2.2 3.9574882542 0.0
2.2 3.97976750927 0.0
2.18000003888 4.0 0.0
2.15999995974 4.0 0.0
2.13999995594 4.0 0.0
2.12000003893 4.0 0.0
2.0999999813 4.0 0.0
2.07999993507 4.0 0.0
2.06000001965 4.0 0.0
2.04000002354 4.0 0.0
2.01999993997 4.0 0.0
1.99999999426 4.0 0.0
1.98000004623 4.0 0.0
1.95999996625 4.0 0.0
1.93999996787 4.0 0.0
1.92000005069 4.0 0.0
1.90000001292 4.0 0.0
1.87999994967 4.0 0.0
1.86000003245 4.0 0.0
1.84000003166 4.0 0.0
1.81999995194 4.0 0.0
1.80000002065 4.0 0.0
1.78000005962 4.0 0.0
1.75999997703 4.0 0.0
1.73999998149 4.0 0.0
1.72000006236 4.0 0.0
1.70000000651 4.0 0.0
1.67999995967 4.0 0.0
1.66000004242 4.0 0.0
1.64000004304 4.0 0.0
1.61999996152 4.0 0.0
1.6000000096 4.0 0.0
1.58000006667 4.0 0.0
1.55999998704 4.0 0.0
1.53999998381 4.0 0.0
1.52000006764 4.0 0.0
1.5000000299 4.0 0.0
1.47999996242 4.0 0.0
1.46000004337 4.0 0.0
1.4400000454 4.0 0.0
1.41999996386 4.0 0.0
1.40000002834 4.0 0.0
1.38000006734 4.0 0.0
1.35999998576 4.0 0.0
1.33999998537 4.0 0.0
1.32000006658 4.0 0.0
1.30000001585 4.0 0.0
1.27999996279 4.0 0.0
1.26000004759 4.0 0.0
1.24000004493 4.0 0.0
1.2199999616 4.0 0.0
1.20000000906 4.0 0.0
1.18000006792 4.0 0.0
1.15999998616 4.0 0.0
1.13999999119 4.0 0.0
1.12000007157 4.0 0.0
1.1 4.0 0.0
1.07999992843 4.0 0.0
1.06000000881 4.0 0.0
1.04000001384 4.0 0.0
1.01999993209 4.0 0.0
0.999999990948 4.0 0.0
0.98000003841 4.0 0.0
0.959999955072 4.0 0.0
0.939999952416 4.0 0.0
0.920000037214 4.0 0.0
0.899999984154 4.0 0.0
0.879999933427 4.0 0.0
0.860000014636 4.0 0.0
0.840000014246 4.0 0.0
0.819999932662 4.0 0.0
0.79999997166 4.0 0.0
0.780000036145 4.0 0.0
0.759999954604 4.0 0.0
0.73999995663 4.0 0.0
0.72000003758 4.0 0.0
0.699999970103 4.0 0.0
0.679999932361 4.0 0.0
0.660000016189 4.0 0.0
0.640000012962 4.0 0.0
0.61999993333 4.0 0.0
0.599999990406 4.0 0.0
0.58000003848 4.0 0.0
0.559999956964 4.0 0.0
0.539999957581 4.0 0.0
0.520000040329 4.0 0.0
0.499999993489 4.0 0.0
0.479999937647 4.0 0.0
0.460000018512 4.0 0.0
0.440000022972 4.0 0.0
0.419999940378 4.0 0.0
0.399999979352 4.0 0.0
0.380000048063 4.0 0.0
0.359999968347 4.0 0.0
0.339999967553 4.0 0.0
0.320000050328 4.0 0.0
0.299999987077 4.0 0.0
0.279999949312 4.0 0.0
0.260000032129 4.0 0.0
0.240000033752 4.0 0.0
0.219999953776 4.0 0.0
0.200000005737 4.0 0.0
0.180000060031 4.0 0.0
0.159999976465 4.0 0.0
0.139999980354 4.0 0.0
0.120000064926 4.0 0.0
0.100000018697 4.0 0.0
0.0799999610675 4.0 0.0
0.0600000440571 4.0 0.0
0.0400000402596 4.0 0.0
0.0199999611169 4.0 0.0
0.0 3.97976750927 0.0
0.0 3.9574882542 0.0
0.0 3.93295517223 0.0
0.0 3.90594026646 0.0
0.0 3.87619247056 0.0
0.0 3.84343531161 0.0
0.0 3.80736436348 0.0
0.0 3.76764438299 0.0
0.0 3.72390623714 0.0
0.0 3.67574343203 0.0
0.0 3.6227083524 0.0
0.0 3.56430812579 0.0
0.249757963562 3.75212589829 0.0
1.94999996706 3.74954522137 0.0
0.488710285893 3.75947702441 0.0
0.726520490699 3.7655965719 0.0
0.967283134849 3.7597072979 0.0
1.20619032017 3.75831098673 0.0
1.45842774915 3.76733088374 0.0
1.69012076678 3.7622332834 0.0
0.130754044069 3.86878249167 0.0
2.06924595593 3.86878249167 0.0
1.8299999918 3.84622455633 0.0
1.56816462369 3.85034872999 0.0
0.369913859351 3.84868157925 0.0
0.608733620231 3.84706187144 0.0
1.33069778866 3.84790908234 0.0
0.84323446252 3.84762979148 0.0
1.08873170817 3.84705870913 0.0
0.250539365135 3.87785524304 0.0
1.94967747948 3.87849609822 0.0
1.73218750075 3.8916046151 0.0
0.468661874066 3.89189322974 0.0
1.47574192429 3.89639134117 0.0
0.704258110321 3.8963912684 0.0
1.18331258449 3.8976320365 0.0
0.949999953744 3.89208018478 0.0
1.64795374468 3.91749779939 0.0
0.548928463645 3.91905583847 0.0
1.38619509199 3.91928594438 0.0
0.788926872841 3.91906062101 0.0
1.27071160784 3.91777932845 0.0
1.02999997296 3.91685174433 0.0
1.81733541416 3.69950870754 0.0
1.86999999106 3.91823503401 0.0
0.071252620538 3.93011431841 0.0
2.12874737946 3.93011431841 0.0
2.07400690796 3.74293885365 0.0
0.125993092043 3.74293885365 0.0
0.32995676804 3.92118147353 0.0
2.00999996712 3.92542383197 0.0
0.190000032884 3.92542383197 0.0
1.56698738743 3.72218882919 0.0
1.33000000474 3.72531695685 0.0
0.848014510843 3.71986098938 0.0
1.09024665585 3.72285801424 0.0
0.610276609989 3.72290563624 0.0
1.54999998543 3.92414142844 0.0
0.629999973146 3.92414137652 0.0
0.869999974031 3.92414141814 0.0
1.11000003579 3.92414141267 0.0
1.79030638642 3.92649353654 0.0
0.370434802927 3.72513294336 0.0
0.410903135411 3.92892991244 0.0
1.33000002597 3.93737911571 0.0
0.129927648482 3.94112154503 0.0
2.07007235152 3.94112154503 0.0
1.93000000928 3.93875927586 0.0
0.26999999072 3.93875927586 0.0
1.40966706061 3.83880068991 0.0
0.770332962441 3.83880062149 0.0
1.24904900022 3.84293377683 0.0
1.01033287484 3.83880060723 0.0
0.530342681434 3.83880307444 0.0
0.189895273961 3.63486992823 0.0
2.00989835291 3.62845703161 0.0
0.998888153878 3.61665036233 0.0
1.47894673873 3.61675180774 0.0
0.51733910646 3.62937665489 0.0
0.705112628302 3.618743723 0.0
1.66672137035 3.63168728155 0.0
1.18508242495 3.61871739348 0.0
1.71000003443 3.94408608591 0.0
0.489999965568 3.94463856597 0.0
1.44983363802 3.94422347836 0.0
0.729999997105 3.94465012565 0.0
1.21016639734 3.94422345842 0.0
0.928621800545 3.94440037102 0.0
2.00626203014 3.81543543551 0.0
0.193627962274 3.81528928332 0.0
1.66628164144 3.83559795895 0.0
1.75661718781 3.81065958113 0.0
1.61143779865 3.94859227761 0.0
0.991673865748 3.95161238438 0.0
0.0604617941233 3.86281264864 0.0
2.13953820588 3.86281264865 0.0
0.300965570716 3.8114148258 0.0
0.2970894797 3.66361086085 0.0
0.398842167194 3.60449226805 0.0
1.51000004877 3.95218393067 0.0
1.90135619383 3.81213273629 0.0
0.669405272842 3.95495208979 0.0
1.07142780558 3.94866325309 0.0
0.592085094025 3.94901139323 0.0
0.831051660929 3.94633985879 0.0
1.14940528892 3.9549521224 0.0
0.44409344258 3.82719938178 0.0
1.49646539728 3.82376850413 0.0
0.683434082651 3.82631713605 0.0
0.92337834777 3.8234861632 0.0
1.16343437877 3.82631615351 0.0
1.90749084149 3.65350700271 0.0
1.8278758005 3.95083911942 0.0
0.37243073327 3.95235211027 0.0
1.29345662549 3.60569899261 0.0
0.813407949226 3.60572380122 0.0
1.29317153636 3.96216077293 0.0
1.367704599 3.96055764734 0.0
1.97071235041 3.96038324024 0.0
0.22928764959 3.96038324024 0.0
2.10610581798 3.66047411138 0.0
0.0938941820177 3.66047411138 0.0
1.67000000105 3.95862953468 0.0
1.74869816704 3.96079301687 0.0
0.531976761939 3.96138655466 0.0
0.451361042387 3.96112774725 0.0
0.771976832233 3.96138887156 0.0
1.88843481911 3.95881554986 0.0
1.61277513709 3.78538823015 0.0
2.13311214501 3.79435403671 0.0
0.0668878549946 3.79435403671 0.0
1.76678797151 3.60286552601 0.0
0.311702446283 3.9611157379 0.0
1.02877762737 3.96159282031 0.0
1.40830122607 3.96143175203 0.0
1.25214210333 3.957355862 0.0
1.59476493393 3.9048774062 0.0
1.56950979124 3.96148017208 0.0
0.890017020275 3.96125792969 0.0
2.03089110475 3.96040268709 0.0
0.169108895255 3.96040268709 0.0
0.939722125942 3.68539157065 0.0
1.41686981874 3.69192854313 0.0
0.0426348006718 3.96101756902 0.0
2.15736519933 3.96101756902 0.0
1.36077308019 3.79177204211 0.0
0.817982383499 3.78962669257 0.0
1.05834720932 3.78780184893 0.0
0.578349529346 3.78781530011 0.0
1.77992711518 3.87652731382 0.0
0.417982153133 3.87594990465 0.0
1.84363633012 3.77741329286 0.0
1.52244994479 3.87704541475 0.0
0.657426528912 3.87734838249 0.0
1.13742651778 3.87734834025 0.0
0.898116026439 3.8800466833 0.0
1.56984259435 3.64465823131 0.0
1.08983016076 3.6446495206 0.0
0.609942357805 3.64483976081 0.0
1.29451769374 3.79627773068 0.0
0.0893439668432 3.96574839433 0.0
2.11065603316 3.96574839433 0.0
2.01422398896 3.86980625824 0.0
0.185776011038 3.86980625824 0.0
0.305957237756 3.87340573745 0.0
1.72977480551 3.68665973332 0.0
1.25418096296 3.69351129461 0.0
0.629999973146 3.96272981435 0.0
1.11000003579 3.96272983221 0.0
0.772975283819 3.69297597031 0.0
1.89089074715 3.86951346173 0.0
0.445448577516 3.69456159386 0.0
1.82621986864 3.89678318705 0.0
2.07135424223 3.81165410377 0.0
0.128645757768 3.81165410377 0.0
0.373320289473 3.89968791662 0.0
1.79000004014 3.96541718891 0.0
0.383302070088 3.78976392323 0.0
0.409457623385 3.96502881851 0.0
1.55531527123 3.78787141386 0.0
1.34861332978 3.89383287415 0.0
0.593245985735 3.89483466551 0.0
0.833245353375 3.89479604398 0.0
1.0732444554 3.8948349405 0.0
0.911896623122 3.59194725763 0.0
0.187580554011 3.70699710313 0.0
2.01241944599 3.70699710313 0.0
1.39201907571 3.59233063354 0.0
2.09635520798 3.90516200201 0.0
0.103644792024 3.90516200201 0.0
1.89086147526 3.72621461413 0.0
1.02102684616 3.70044819701 0.0
1.49813234221 3.70194667869 0.0
0.53965669049 3.70593418829 0.0
1.63719578665 3.69772473547 0.0
0.685447658936 3.70127585046 0.0
1.16541741817 3.70128744764 0.0
0.901649266036 3.76287226775 0.0
0.992351690321 3.90662993531 0.0
1.69131894868 3.90657323657 0.0
1.9699561555 3.91599371502 0.0
0.230043844497 3.91599371502 0.0
1.61980840676 3.85005402918 0.0
2.04685187594 3.90639759008 0.0
0.153148124058 3.90639759008 0.0
0.512139828486 3.90538520837 0.0
1.43057458921 3.90702644399 0.0
0.749149996349 3.90689574876 0.0
[...]
POINT_DATA 1163
VECTORS Displacement float
0.0 0.0 0
0.0 0.0 0
0.00772782253071 -0.00198818897439 0
-0.0118904259451 -0.00236959122748 0
0.0 0.0 0
0.0 0.0 0
0.0 0.0 0
0.0 0.0 0
0.0 0.0 0
0.0 0.0 0
0.0 0.0 0
0.0 0.0 0
0.0 0.0 0
0.0 0.0 0
0.0 0.0 0
0.0 0.0 0
0.0 0.0 0
0.0 0.0 0
0.0 0.0 0
0.0 0.0 0
0.0 0.0 0
0.0 0.0 0
0.0 0.0 0
0.0 0.0 0
0.0 0.0 0
0.0 0.0 0
0.0 0.0 0
0.0 0.0 0
0.0 0.0 0
0.0 0.0 0
0.0 0.0 0
0.0 0.0 0
0.0 0.0 0
0.0 0.0 0
0.0 0.0 0
0.00145046442667 -0.00127833762398 0
0.00265702938223 -0.00181607929294 0
0.00370616426401 -0.0020548243913 0
0.00453595769546 -0.00213630724933 0
0.00519397554307 -0.00213707316086 0
0.00572446111464 -0.00210334260673 0
0.00614628330411 -0.00206774090805 0
0.00650509135698 -0.0020347007039 0
0.00680699952908 -0.00200991165802 0
0.00707232624343 -0.00199667619746 0
0.00731051234838 -0.00199030709315 0
0.0075281699371 -0.0019881712413 0
0.00772785070041 -0.00179012025097 0
0.00772665840329 -0.00158975413338 0
0.00772273209993 -0.00138837812775 0
0.00771493645571 -0.00118726354131 0
0.0077033323654 -0.000988735799363 0
0.00768836064631 -0.000794751873823 0
0.00766893666546 -0.000605944516905 0
0.00764732927683 -0.000425030090939 0
0.00762157524572 -0.000251862452979 0
0.00759467760066 -8.82151264171e-05 0
0.00756291140351 6.6221509968e-05 0
0.00752837061885 0.000207996594048 0
0.00749254152617 0.000337426832425 0
0.0074513733816 0.000454461396607 0
0.0074085641465 0.000556840426185 0
0.00735784406856 0.000644951845066 0
0.00730275306996 0.000714971850735 0
0.00723960582608 0.000768740477544 0
0.00716946363072 0.000799404841021 0
0.00708457075771 0.000807076809323 0
0.00699074891758 0.000787506696331 0
0.00689008188431 0.000735886157046 0
0.00676838936427 0.000658440515859 0
0.00663283195122 0.000536514944949 0
0.006471267948 0.000375889396561 0
0.00629836104703 0.000162565181135 0
0.00609084096842 -0.000101333070419 0
0.00586316660638 -0.000435450590792 0
0.0056042839275 -0.000838125376621 0
0.00533329099096 -0.00132200966388 0
0.00502868371451 -0.00190925780739 0
0.00467088269073 -0.00258106916153 0
0.00429735531079 -0.00337738671951 0
0.00387978851329 -0.00430791446172 0
0.00343618788106 -0.005391421939 0
0.00294885010747 -0.00663533042315 0
0.00242000452595 -0.00808031821277 0
0.00184672679664 -0.00975255722368 0
0.00128542762878 -0.0116741779878 0
0.000666817450088 -0.013893610736 0
7.35887353584e-05 -0.0163986411281 0
-0.000530683096312 -0.0192736888127 0
-0.00110813024717 -0.0225911191444 0
-0.00175790971795 -0.0264641008274 0
-0.00222045770463 -0.0309324360936 0
-0.00254528025337 -0.0362102583019 0
-0.00248546695506 -0.0424126974743 0
-0.00175613355932 -0.0503715415224 0
-8.33818575213e-05 -0.060133878458 0
0.00179281652847 -0.0691807826267 0
0.00347695869279 -0.0778560384853 0
0.00498152241376 -0.0859622054895 0
0.00626321521431 -0.0936480521535 0
0.00732736302686 -0.100869208063 0
0.00806131773201 -0.107663026733 0
0.00858912937021 -0.114034109876 0
0.0088705134843 -0.119961941113 0
0.00883529955503 -0.125432629558 0
0.008607741418 -0.130419071121 0
0.00817352803472 -0.134915292334 0
0.00751119986289 -0.138923077339 0
0.00667579806506 -0.142419352814 0
0.00565187621852 -0.145395237749 0
0.00448124607191 -0.147841702029 0
0.00319291776881 -0.149745640338 0
0.00177548198272 -0.151099159411 0
0.000265811608758 -0.151865365409 0
-0.00129165328753 -0.152140327022 0
-0.00301157800596 -0.151858830851 0
-0.00457341506214 -0.150991069965 0
-0.00602044743901 -0.149567875616 0
-0.0073751121287 -0.147591878499 0
-0.00856724182299 -0.145080492929 0
-0.00961741286743 -0.142036146665 0
-0.0105097920053 -0.138462371607 0
-0.0111954135122 -0.134379443878 0
-0.0116683913658 -0.129800340274 0
-0.0119328247648 -0.124713693999 0
-0.0119803245709 -0.11922167701 0
-0.011731376693 -0.113251381754 0
-0.011316124582 -0.106801096316 0
-0.0105790813944 -0.0999002814005 0
-0.00962650117465 -0.092553926175 0
-0.00840223065391 -0.0847605409805 0
-0.00702405014009 -0.0765270688728 0
-0.005339797396 -0.0676728964719 0
-0.00375104226849 -0.0583870622516 0
-0.00234232804926 -0.0486595501993 0
-0.00213941483792 -0.0416814503481 0
-0.00247845515659 -0.0357807674893 0
-0.00318838363551 -0.0309406369408 0
-0.00390077798699 -0.0268248841903 0
-0.0046583506163 -0.0233152187942 0
-0.00548002715919 -0.0202799294696 0
-0.00628389911498 -0.0176829557734 0
-0.00702133786281 -0.0154392313789 0
-0.00778021399777 -0.0135175571704 0
-0.00845312171105 -0.0118739723228 0
-0.00910833988055 -0.0104649381709 0
-0.00970490533557 -0.00928619112914 0
-0.0102052523656 -0.00826034966323 0
-0.010665612767 -0.00738974275584 0
-0.0110378288483 -0.00662215061654 0
-0.0113506255033 -0.0059620283208 0
-0.011578867795 -0.00534828187333 0
-0.011740849286 -0.00477638091441 0
-0.011839685009 -0.00421180583464 0
-0.0118840366644 -0.00362903269989 0
-0.0118924380226 -0.00301673483362 0
-0.0125523823493 -0.00236765641264 0
-0.0133168011634 -0.00238690691953 0
-0.014200361573 -0.00246260341866 0
-0.0151807235575 -0.00263226604019 0
-0.0161920919148 -0.00298541422802 0
-0.017061370956 -0.00351577449644 0
-0.0177642927901 -0.00421565979848 0
-0.017890064927 -0.00509789550112 0
-0.0172436901401 -0.00596719250507 0
-0.0154797901208 -0.00667008501184 0
-0.012010061269 -0.0066637879438 0
-0.00701050093681 -0.00519711281365 0
-0.0204022114161 -0.0103040453617 0
0.00545090019071 5.25178423511e-05 0
-0.023364979076 -0.0380250650276 0
-0.0109438933421 -0.0681323421202 0
0.00937928062164 -0.0657712923724 0
0.0204227964526 -0.0361450729947 0
0.0147597014533 -0.00762479601187 0
0.00865896022219 -0.000270921014894 0
-0.0168538809922 -0.00604875366879 0
0.00647311973522 -0.000682029222195 0
0.00712388967474 0.000656955180454 0
0.010174914185 -0.00230217686985 0
-0.0220819604877 -0.0263180353189 0
-0.0196152768684 -0.0764451366452 0
0.0171306947891 -0.0227831515646 0
-0.00117197886203 -0.0983793473101 0
0.0171627417366 -0.0738014071025 0
-0.0176256072406 -0.0121277308589 0
0.0067550120387 0.000257758208546 0
0.0076399880711 0.000619175130107 0
-0.0217849618894 -0.0517445829673 0
0.00996001764107 -0.0067224072975 0
-0.0126682521736 -0.105709533849 0
0.0176006446885 -0.0614272328288 0
0.00767144117165 -0.107722847419 0
0.00764715683924 -0.000198761548351 0
-0.0191833187298 -0.0794241807588 0
0.0098481116079 -0.0153423354654 0
-0.00580324099889 -0.121228897774 0
0.0138274022204 -0.0379232053435 0
0.0122909559861 -0.103630985757 0
0.00589977616925 6.05538310304e-05 0
0.00711871253581 0.000691158334025 0
-0.014332598255 -0.00450229250667 0
0.00704782891378 -0.00127127690591 0
0.00488747776853 -0.000699772577136 0
-0.0182846782179 -0.00541623578244 0
-0.0156180792536 -0.0212817329189 0
0.0070221698613 -0.000155854699346 0
-0.0143299733123 -0.00839894468977 0
0.0112072814413 -0.00264673351744 0
0.0184758567006 -0.0170513989637 0
-0.000451297652565 -0.0581974373859 0
0.0163305797722 -0.0449402385482 0
-0.0177397892267 -0.0465657493961 0
0.007793252805 -0.00277207546589 0
-0.0162590953278 -0.101040102546 0
0.00100888862603 -0.124040666517 0
0.0147558053176 -0.0872185306182 0
0.00724245352847 0.000832637958769 0
-0.0221264161922 -0.0190919464159 0
-0.0169014086899 -0.0380960285376 0
0.0091191128605 -0.0243088981925 0
-0.01369346413 -0.00609060254677 0
0.00714702319399 -0.000689429057305 0
0.00714476719211 0.000414224324088 0
-0.0133307796916 -0.0140259604864 0
0.0147325615171 -0.0122797150688 0
-0.00764702008763 -0.0933987553821 0
0.0197692872018 -0.0382042405427 0
0.0126908505 -0.0841953178422 0
-0.0230420519648 -0.0588285902414 0
-0.013897286921 -0.00466618006995 0
0.00292793690619 -0.000252309026994 0
0.00755322833732 -0.0262484318219 0
0.00991980623023 -0.00398724447579 0
-0.015427285119 -0.0204208609921 0
-0.00804882366722 -0.0273116206618 0
0.00659919429417 -0.000883560868622 0
0.0134454418079 -0.0176349101037 0
0.00714806846012 0.000537588021649 0
-0.0169108195045 -0.0651081631688 0
0.00685689930698 -0.00867334905696 0
-0.0100018799891 -0.124688422453 0
0.0124574486553 -0.0590708684631 0
0.00546916034507 -0.127342484536 0
0.00601852044824 -0.00017799392238 0
-0.0190608259544 -0.00815478317481 0
0.00884696354531 -0.000191924909051 0
0.00774736857781 0.000433585776993 0
0.00689248437771 -0.000900910923511 0
0.00923696371672 -0.121163725803 0
-0.0167920445703 -0.00447932503023 0
0.00637495096699 -0.0013878809417 0
-0.0214266887507 -0.0159030909574 0
-0.0177810800381 -0.00972471806118 0
-0.0139978234637 -0.0106260389166 0
0.00639247279373 -0.00462934555149 0
0.00646145022958 0.00038006115925 0
-0.0132290048752 -0.118163932402 0
0.0123276493133 -0.103304998529 0
-0.0160629760904 -0.098322396966 0
-0.00221920541672 -0.132267403155 0
0.0121409097494 -0.0819221662838 0
-0.024158071588 -0.0388363056028 0
0.012568360602 -0.00553014702683 0
-0.0148265857969 -0.0819201730503 0
0.00594456537996 -0.0879912224698 0
0.0200577361779 -0.054416068649 0
0.00407719614582 -5.72804761287e-05 0
0.00717943419151 0.000821733958826 0
-0.0123860952693 -0.0291093355393 0
0.0125005988592 -0.0104030351054 0
-0.00206888558209 -0.0258611384157 0
0.00614957173464 -0.0325902147498 0
0.00530405597587 -0.0179417290175 0
0.0072765023305 0.000148051325468 0
-0.0117548420522 -0.0107900108366 0
0.00337034856097 -0.000808177043012 0
-0.014747953841 -0.00416022813786 0
0.00684839242394 0.000131332193009 0
0.00705003671171 0.000751872408943 0
-0.0151015004837 -0.0826042857558 0
-0.0133911573036 -0.0524356264796 0
-0.00684070159551 -0.134930138568 0
0.00722419080333 0.000631980336351 0
0.0102660824257 -0.00136401343786 0
0.00557159364118 -0.00130539784142 0
-0.0182210636091 -0.00487034145089 0
0.00413719584932 -0.000366138988361 0
-0.0108187183403 -0.0188208072577 0
0.0104916175933 -0.116949198001 0
0.00522566172687 -0.0126873072401 0
0.00889895198106 -0.0448785056278 0
0.00825950268973 -0.00132977214944 0
0.00627060892781 -0.00208986615741 0
0.0025135627605 -0.136349042706 0
0.00730400002524 -0.000333300441725 0
-0.0124539161635 -0.00754425137191 0
0.00624202686857 -0.0462591075984 0
0.0151577832572 -0.00871380645817 0
-0.0131813113516 -0.00370634035629 0
0.00734441689168 -0.00156272157499 0
0.0178951780118 -0.016819610492 0
-0.00336744016861 -0.0794108840761 0
0.0158638143866 -0.0640570154761 0
-0.0211492985798 -0.0572674055899 0
0.00745190185228 0.000735155031902 0
-0.0219545918861 -0.0372955746028 0
0.00662914739277 0.000393797160953 0
0.0100897968223 -0.00409171141313 0
-0.0162113888227 -0.092983893518 0
0.0180431346267 -0.0699706527975 0
0.00354417459351 -0.10778344314 0
0.00914899179406 -0.00227931925416 0
0.0127754834632 -0.0281794603483 0
-0.0138231430155 -0.0291279712574 0
0.0197969957844 -0.0261451726389 0
-0.0128556733556 -0.00497156388076 0
0.00738095503874 -0.00108912075818 0
0.00655161036469 -0.000205092117114 0
-0.0172143700896 -0.00806873651171 0
-0.0190283917733 -0.0176094336783 0
0.0069682771053 -0.000318599474545 0
0.0184688647724 -0.0221157628185 0
-0.0142911578846 -0.111716887271 0
0.0116110451722 -0.09602181334 0
-0.00616750517715 -0.0493539601339 0
0.0068885176365 0.000549696435519 0
-0.021137943761 -0.023846484468 0
0.00720039204929 0.000779725303108 0
0.00583854635921 -0.000698512558496 0
-0.0183809746422 -0.00588317564636 0
-0.0189091736718 -0.0286519399702 0
0.00711532618146 0.000837027988193 0
-0.0236256236622 -0.0252577621378 0
-0.0109510600059 -0.0383158671032 0
0.0116261186909 -0.00298310164299 0
0.0133121056764 -0.0207840489063 0
-0.0191263575923 -0.0852208873949 0
-0.00210759005452 -0.114246629346 0
0.0150859232288 -0.088839866884 0
0.00275088468836 -0.0220137981706 0
-0.0180213104807 -0.00637377830498 0
0.00446347871367 -0.000279848528702 0
0.00991598858127 -0.00556719623184 0
0.00681440339341 -0.000942659485122 0
-0.0153458136422 -0.00532303961309 0
0.00555387248856 0.000145331065015 0
0.0119753513519 -0.0457633834961 0
0.012903912648 -0.00489827826332 0
-0.019998498751 -0.0356797874311 0
0.00905603431597 -0.00121320532737 0
-0.0125387183116 -0.0474676647499 0
0.0180600754335 -0.032554456039 0
0.00404681353446 -0.0701603297648 0
0.0103708316568 -0.106953501755 0
0.00767853799267 0.000331767279308 0
0.00698001408832 0.000147652459621 0
-0.0149928999374 -0.0107207626075 0
0.00930855790911 -0.000930596730922 0
0.00684453523627 -0.000474983403331 0
-0.015330087014 -0.00681504942099 0
-0.0207557839384 -0.0662049992604 0
0.0100509133297 -0.0103710446233 0
-0.0091282018985 -0.114166091558 0
0.0159880715589 -0.0496771671359 0
0.00456286003371 -0.00127505105998 0
-0.0175570609016 -0.00494773953447 0
0.00706511319389 -0.131433522633 0
-0.0154648563668 -0.00385537899511 0
0.00675858016227 -0.00158926871342 0
0.00523922429442 -0.00659946505265 0
-0.0112643263223 -0.127878458906 0
0.0098270490466 -0.0723171741511 0
-0.0197523149071 -0.0114090566819 0
-0.0218249568931 -0.0151949052286 0
0.0173015385338 -0.0319603857043 0
0.00633154930588 0.000167443247345 0
0.00483887286607 -0.0243166146198 0
0.00728814352563 0.000165748877192 0
0.0186669290206 -0.0534344999685 0
-0.0175899275231 -0.0632846439007 0
0.00776557538615 -0.00624474500354 0
-0.0124215351873 -0.115502000817 0
0.0147063097296 -0.0682394380954 0
0.00653697065831 -0.000379599591808 0
0.00147049994007 -0.0818859205891 0
0.00275960048344 -0.000157995989012 0
0.00727798600602 0.000413494550395 0
-0.0108566365672 -0.0141353474629 0
-0.0146589817175 -0.0928986163162 0
-0.00480002829462 -0.138679381089 0
0.00590509864546 -0.00315207892843 0
0.000289771012464 -0.138918778185 0
0.00722634568513 0.000728905411045 0
0.00736546104746 -0.000689784293513 0
-0.0125737155702 -0.00615510524844 0
-0.00963833617511 -0.0226231669031 0
0.00811528304208 0.000370651139157 0
0.00734486426196 -6.13272432536e-05 0
-0.0116034301836 -0.00915702004134 0
-0.023790673675 -0.0492666874764 0
0.0129395506375 -0.00807470650209 0
-0.011715785072 -0.0918427948814 0
0.0201920247579 -0.0492224395876 0
0.00909963054937 -0.0917597437636 0
0.00227419863424 -0.000167525655058 0
-0.00983313335638 -0.00415618238386 0
0.00736726582731 0.000744037809654 0
0.00806971305611 -0.11846458896 0
-0.0193745177758 -0.0486203875255 0
0.0135754266236 -0.0288948072391 0
-0.00523352004781 -0.105324526021 0
0.0139518652547 -0.0892192861063 0
-0.0213657674651 -0.0715089120308 0
-0.00822194745798 -0.00242677567111 0
0.00164588363484 -0.000324651448637 0
-0.0105286182157 -0.00599628468507 0
0.00702163950735 0.000540867183927 0
-0.0165144857269 -0.0167521941941 0
0.0132695730898 -0.00504878881468 0
0.013898936462 -0.0156332790515 0
0.00419772279628 -0.118065551772 0
-0.0233959901186 -0.0282342100038 0
0.00825610782203 -0.00420009343428 0
-0.014751516833 -0.105887168421 0
0.0158174418166 -0.0759906701351 0
0.00611713975116 -0.000981689626104 0
-0.0176593035958 -0.00529634745299 0
0.00685949674541 0.000517721602962 0
0.00736786151189 -0.00184709606797 0
0.00539242918599 -0.000366606706504 0
-0.0190811403744 -0.00680003851405 0
-0.0131579850622 -0.068595049936 0
0.00506348379071 -0.00836586147445 0
-0.00990727485593 -0.131447973678 0
0.00551429241557 -0.135210776728 0
0.00914152258745 -0.0629859680084 0
0.0199681903679 -0.0260406483179 0
0.0083645860495 -6.77594664494e-05 0
0.00589641769265 -0.00161387408988 0
-0.0177372731716 -0.00444977317078 0
0.0167724793159 -0.0117111360017 0
0.00407017488767 -0.000953979220734 0
0.0072181773728 0.000503907493295 0
0.00758669036356 -0.0104289450424 0
0.0157391647879 -0.0122119326479 0
-0.00621343259164 -0.0127275834132 0
0.000204439667369 -0.0412530837406 0
-0.0179498657987 -0.00827595007026 0
-0.00597614145476 -0.0643913425766 0
-0.022530416553 -0.0209558980726 0
0.00918028498016 -0.00223578231428 0
-0.0104311312033 -0.00980297741213 0
-0.00891615188211 -0.00335229201941 0
0.00184050573698 -0.000822429369973 0
0.00741908427209 -0.00134035085748 0
-0.0128390103993 -0.00430965519539 0
0.00705839071639 0.000673418556265 0
0.00969174990671 -0.0094167148432 0
-0.00381865325821 -0.0176955757277 0
-0.0143587823348 -0.0034570941035 0
0.00704178957949 -0.00168566470193 0
-0.0095853360445 -0.0128959029625 0
0.00437679463527 -5.74415010125e-05 0
-0.0189846283836 -0.0141050253035 0
0.00684831132846 -0.016058666631 0
0.00654324150406 -0.00222805762497 0
-0.0231275991674 -0.0484315407622 0
-0.0192891226372 -0.0214021037903 0
0.0156739553284 -0.0101551387097 0
0.0124942691669 -0.0696110999239 0
0.00610017189994 -0.00101355185872 0
0.00852115203011 -0.129136993767 0
0.0103575336281 -0.0197087604785 0
0.00623584840287 -0.000419114254201 0
-0.018011353477 -0.0069403057586 0
0.00347756453242 -0.0004743735519 0
0.0207792434317 -0.032790985024 0
0.0102032095115 -0.11668826297 0
-0.00827941322763 -0.0752638817404 0
-0.00444671144961 -0.0948442419644 0
0.014852505331 -0.0808750848722 0
-0.0217748637529 -0.0674270480607 0
0.016172901627 -0.0166398710963 0
0.00306610495338 -0.0147759798371 0
0.00363041932623 -0.0394037341569 0
0.00448163726133 -7.97690147033e-05 0
0.0070921681438 -0.000976098869475 0
-0.0140720496563 -0.00523280337463 0
-0.01408297033 -0.108176517898 0
-0.0130868918929 -0.120283897755 0
0.0110396844268 -0.104634137143 0
0.0102750189227 -0.0905434584043 0
-0.017070383186 -0.00497529232314 0
0.00416343156449 -0.000601691058095 0
0.0085773074736 3.17279118319e-05 0
0.00680217463374 -0.00125922035647 0
-0.0153451748769 -0.0045824984233 0
0.00677775070374 0.000526296535351 0
0.00471226762693 -0.00472897798221 0
-0.00220975595882 -0.145630128993 0
-0.0146133341645 -0.0684705105053 0
0.0201409144895 -0.0462890058196 0
0.00714861885777 0.000833415615939 0
0.0183741367403 -0.0388196509821 0
-0.0088612577552 -0.032334543944 0
-0.0127946875561 -0.00323538728344 0
0.00745648068368 -0.0017212715144 0
0.000724664719178 -0.112854541281 0
0.0165510897163 -0.0803242757085 0
-0.0177391808666 -0.0910218736775 0
-0.0181932707519 -0.0100165426729 0
0.00614547554407 0.000303763833322 0
0.00658422011992 3.63303827145e-05 0
0.00708114149145 -0.000455714693859 0
-0.0139670431403 -0.00692254262331 0
0.00716735919168 0.000779084825607 0
0.00702055935833 0.000798939540034 0
-0.00896799587327 -0.0447807496948 0
0.00932235642663 -0.000536188790594 0
0.0112176401403 -0.00371643723575 0
-0.0175151815293 -0.0796180897086 0
0.00292393625713 -0.0927932751717 0
0.0188350918737 -0.0642876802487 0
-0.0233962873138 -0.0325654187704 0
0.0109447507583 -0.0954015126547 0
-0.0241952977956 -0.0429904893141 0
0.0126280036286 -0.0103973684723 0
-0.0228063820053 -0.0594212377015 0
-0.00933547416017 -0.102161315547 0
0.00682883121722 -3.50415005924e-05 0
0.0142033849969 -0.00780035445254 0
-0.0159424012487 -0.00907631445493 0
-0.0118564871124 -0.0785531855893 0
0.00900303569667 -0.0787632319407 0
0.0207666565854 -0.0432336926376 0
0.00770359248518 -0.000728948801541 0
0.00840149927476 -0.000526215140162 0
-0.0182011824012 -0.0879699552907 0
-0.00360089942208 -0.124123783001 0
0.0134216320669 -0.0987813738195 0
0.00269420911518 -0.0208106792231 0
0.00264796788712 -0.0283738840154 0
0.0113814177535 -0.00589132925494 0
-0.0141244569806 -0.0939705520121 0
0.0192100669249 -0.0597979981496 0
0.00650524001058 -0.100632850326 0
0.00737867351079 0.00029232396812 0
-0.00988039407602 -0.0125378810424 0
-0.0152087449899 -0.025614755671 0
0.00946082911848 -0.000889760857365 0
0.00780202339606 -0.0111451114228 0
0.0128209572591 -0.0490802419454 0
0.00772823820816 0.000612666942698 0
0.00732709967229 0.000517100827966 0
-0.012199477362 -0.125174790831 0
0.00980776312387 -0.0813216144264 0
0.00586583093406 4.19582929643e-06 0
-0.0199957817032 -0.0095785072542 0
0.0137813410274 -0.0568597988771 0
-0.0164037152957 -0.00390829922403 0
0.00647991726904 -0.00165435393316 0
-0.0209375413046 -0.0212361268723 0
-0.0211886335184 -0.0459979429997 0
-0.00903529624851 -0.0162132342107 0
-0.0231931490241 -0.0441728764956 0
0.00696567694175 0.000318706722004 0
-0.01567712295 -0.0126871013336 0
0.0079944779021 0.000283813736838 0
-0.00778693892624 -0.00255617788886 0
0.00155837156785 -0.000172702126835 0
-0.0193823635536 -0.0138693766147 0
0.00425653696106 -0.01557455407 0
0.00703088167091 -0.00300036215494 0