# vtk DataFile Version 2.0
Generated with Solid Solver
ASCII
DATASET UNSTRUCTURED_GRID
POINTS 1163 float 
0.0 3.5 0.0
2.2 3.5 0.0
2.2 4.0 0.0
0.0 4.0 0.0
0.0687499999999 3.5 0.0
0.1375 3.5 0.0
0.20625 3.5 0.0
0.275 3.5 0.0
0.343749999999 3.5 0.0
0.412499999999 3.5 0.0
0.481249999999 3.5 0.0
0.549999999999 3.5 0.0
0.618749999998 3.5 0.0
0.687499999998 3.5 0.0
0.756249999998 3.5 0.0
0.824999999998 3.5 0.0
0.893749999998 3.5 0.0
0.962499999997 3.5 0.0
1.03125 3.5 0.0
1.1 3.5 0.0
1.16875 3.5 0.0
1.2375 3.5 0.0
1.30625 3.5 0.0
1.375 3.5 0.0
1.44375 3.5 0.0
1.5125 3.5 0.0
1.58125 3.5 0.0
1.65 3.5 0.0
1.71875 3.5 0.0
1.7875 3.5 0.0
1.85625 3.5 0.0
1.925 3.5 0.0
1.99375 3.5 0.0
2.0625 3.5 0.0
2.13125 3.5 0.0
2.2 3.56430812579 0.0
2.2 3.6227083524 0.0
2.2 3.67574343203 0.0
2.2 3.72390623714 0.0
2.2 3.76764438299 0.0
2.2 3.80736436348 0.0
2.2 3.84343531161 0.0
2.2 3.87619247056 0.0
2.2 3.90594026646 0.0
2.2 3.93295517223 0.0
2.2 3.9574882542 0.0
2.2 3.97976750927 0.0
2.18000003888 4.0 0.0
2.15999995974 4.0 0.0
2.13999995594 4.0 0.0
2.12000003893 4.0 0.0
2.0999999813 4.0 0.0
2.07999993507 4.0 0.0
2.06000001965 4.0 0.0
2.04000002354 4.0 0.0
2.01999993997 4.0 0.0
1.99999999426 4.0 0.0
1.98000004623 4.0 0.0
1.95999996625 4.0 0.0
1.93999996787 4.0 0.0
1.92000005069 4.0 0.0
1.90000001292 4.0 0.0
1.87999994967 4.0 0.0
1.86000003245 4.0 0.0
1.84000003166 4.0 0.0
1.81999995194 4.0 0.0
1.80000002065 4.0 0.0
1.78000005962 4.0 0.0
1.75999997703 4.0 0.0
1.73999998149 4.0 0.0
1.72000006236 4.0 0.0
1.70000000651 4.0 0.0
1.67999995967 4.0 0.0
1.66000004242 4.0 0.0
1.64000004304 4.0 0.0
1.61999996152 4.0 0.0
1.6000000096 4.0 0.0
1.58000006667 4.0 0.0
1.55999998704 4.0 0.0
1.53999998381 4.0 0.0
1.52000006764 4.0 0.0
1.5000000299 4.0 0.0
1.47999996242 4.0 0.0
1.46000004337 4.0 0.0
1.4400000454 4.0 0.0
1.41999996386 4.0 0.0
1.40000002834 4.0 0.0
1.38000006734 4.0 0.0
1.35999998576 4.0 0.0
1.33999998537 4.0 0.0
1.32000006658 4.0 0.0
1.30000001585 4.0 0.0
1.27999996279 4.0 0.0
1.26000004759 4.0 0.0
1.24000004493 4.0 0.0
1.2199999616 4.0 0.0
1.20000000906 4.0 0.0
1.18000006792 4.0 0.0
1.15999998616 4.0 0.0
1.13999999119 4.0 0.0
1.12000007157 4.0 0.0
1.1 4.0 0.0
1.07999992843 4.0 0.0
1.06000000881 4.0 0.0
1.04000001384 4.0 0.0
1.01999993209 4.0 0.0
0.999999990948 4.0 0.0
0.98000003841 4.0 0.0
0.959999955072 4.0 0.0
0.939999952416 4.0 0.0
0.920000037214 4.0 0.0
0.899999984154 4.0 0.0
0.879999933427 4.0 0.0
0.860000014636 4.0 0.0
0.840000014246 4.0 0.0
0.819999932662 4.0 0.0
0.79999997166 4.0 0.0
0.780000036145 4.0 0.0
0.759999954604 4.0 0.0
0.73999995663 4.0 0.0
0.72000003758 4.0 0.0
0.699999970103 4.0 0.0
0.679999932361 4.0 0.0
0.660000016189 4.0 0.0
0.640000012962 4.0 0.0
0.61999993333 4.0 0.0
0.599999990406 4.0 0.0
0.58000003848 4.0 0.0
0.559999956964 4.0 0.0
0.539999957581 4.0 0.0
0.520000040329 4.0 0.0
0.499999993489 4.0 0.0
0.479999937647 4.0 0.0
0.460000018512 4.0 0.0
0.440000022972 4.0 0.0
0.419999940378 4.0 0.0
0.399999979352 4.0 0.0
0.380000048063 4.0 0.0
0.359999968347 4.0 0.0
0.339999967553 4.0 0.0
0.320000050328 4.0 0.0
0.299999987077 4.0 0.0
0.279999949312 4.0 0.0
0.260000032129 4.0 0.0
0.240000033752 4.0 0.0
0.219999953776 4.0 0.0
0.200000005737 4.0 0.0
0.180000060031 4.0 0.0
0.159999976465 4.0 0.0
0.139999980354 4.0 0.0
0.120000064926 4.0 0.0
0.100000018697 4.0 0.0
0.0799999610675 4.0 0.0
0.0600000440571 4.0 0.0
0.0400000402596 4.0 0.0
0.0199999611169 4.0 0.0
0.0 3.97976750927 0.0
0.0 3.9574882542 0.0
0.0 3.93295517223 0.0
0.0 3.90594026646 0.0
0.0 3.87619247056 0.0
0.0 3.84343531161 0.0
0.0 3.80736436348 0.0
0.0 3.76764438299 0.0
0.0 3.72390623714 0.0
0.0 3.67574343203 0.0
0.0 3.6227083524 0.0
0.0 3.56430812579 0.0
0.249757963562 3.75212589829 0.0
1.94999996706 3.74954522137 0.0
0.488710285893 3.75947702441 0.0
0.726520490699 3.7655965719 0.0
0.967283134849 3.7597072979 0.0
1.20619032017 3.75831098673 0.0
1.45842774915 3.76733088374 0.0
1.69012076678 3.7622332834 0.0
0.130754044069 3.86878249167 0.0
2.06924595593 3.86878249167 0.0
1.8299999918 3.84622455633 0.0
1.56816462369 3.85034872999 0.0
0.369913859351 3.84868157925 0.0
0.608733620231 3.84706187144 0.0
1.33069778866 3.84790908234 0.0
0.84323446252 3.84762979148 0.0
1.08873170817 3.84705870913 0.0
0.250539365135 3.87785524304 0.0
1.94967747948 3.87849609822 0.0
1.73218750075 3.8916046151 0.0
0.468661874066 3.89189322974 0.0
1.47574192429 3.89639134117 0.0
0.704258110321 3.8963912684 0.0
1.18331258449 3.8976320365 0.0
0.949999953744 3.89208018478 0.0
1.64795374468 3.91749779939 0.0
0.548928463645 3.91905583847 0.0
1.38619509199 3.91928594438 0.0
0.788926872841 3.91906062101 0.0
1.27071160784 3.91777932845 0.0
1.02999997296 3.91685174433 0.0
1.81733541416 3.69950870754 0.0
1.86999999106 3.91823503401 0.0
0.071252620538 3.93011431841 0.0
2.12874737946 3.93011431841 0.0
2.07400690796 3.74293885365 0.0
0.125993092043 3.74293885365 0.0
0.32995676804 3.92118147353 0.0
2.00999996712 3.92542383197 0.0
0.190000032884 3.92542383197 0.0
1.56698738743 3.72218882919 0.0
1.33000000474 3.72531695685 0.0
0.848014510843 3.71986098938 0.0
1.09024665585 3.72285801424 0.0
0.610276609989 3.72290563624 0.0
1.54999998543 3.92414142844 0.0
0.629999973146 3.92414137652 0.0
0.869999974031 3.92414141814 0.0
1.11000003579 3.92414141267 0.0
1.79030638642 3.92649353654 0.0
0.370434802927 3.72513294336 0.0
0.410903135411 3.92892991244 0.0
1.33000002597 3.93737911571 0.0
0.129927648482 3.94112154503 0.0
2.07007235152 3.94112154503 0.0
1.93000000928 3.93875927586 0.0
0.26999999072 3.93875927586 0.0
1.40966706061 3.83880068991 0.0
0.770332962441 3.83880062149 0.0
1.24904900022 3.84293377683 0.0
1.01033287484 3.83880060723 0.0
0.530342681434 3.83880307444 0.0
0.189895273961 3.63486992823 0.0
2.00989835291 3.62845703161 0.0
0.998888153878 3.61665036233 0.0
1.47894673873 3.61675180774 0.0
0.51733910646 3.62937665489 0.0
0.705112628302 3.618743723 0.0
1.66672137035 3.63168728155 0.0
1.18508242495 3.61871739348 0.0
1.71000003443 3.94408608591 0.0
0.489999965568 3.94463856597 0.0
1.44983363802 3.94422347836 0.0
0.729999997105 3.94465012565 0.0
1.21016639734 3.94422345842 0.0
0.928621800545 3.94440037102 0.0
2.00626203014 3.81543543551 0.0
0.193627962274 3.81528928332 0.0
1.66628164144 3.83559795895 0.0
1.75661718781 3.81065958113 0.0
1.61143779865 3.94859227761 0.0
0.991673865748 3.95161238438 0.0
0.0604617941233 3.86281264864 0.0
2.13953820588 3.86281264865 0.0
0.300965570716 3.8114148258 0.0
0.2970894797 3.66361086085 0.0
0.398842167194 3.60449226805 0.0
1.51000004877 3.95218393067 0.0
1.90135619383 3.81213273629 0.0
0.669405272842 3.95495208979 0.0
1.07142780558 3.94866325309 0.0
0.592085094025 3.94901139323 0.0
0.831051660929 3.94633985879 0.0
1.14940528892 3.9549521224 0.0
0.44409344258 3.82719938178 0.0
1.49646539728 3.82376850413 0.0
0.683434082651 3.82631713605 0.0
0.92337834777 3.8234861632 0.0
1.16343437877 3.82631615351 0.0
1.90749084149 3.65350700271 0.0
1.8278758005 3.95083911942 0.0
0.37243073327 3.95235211027 0.0
1.29345662549 3.60569899261 0.0
0.813407949226 3.60572380122 0.0
1.29317153636 3.96216077293 0.0
1.367704599 3.96055764734 0.0
1.97071235041 3.96038324024 0.0
0.22928764959 3.96038324024 0.0
2.10610581798 3.66047411138 0.0
0.0938941820177 3.66047411138 0.0
1.67000000105 3.95862953468 0.0
1.74869816704 3.96079301687 0.0
0.531976761939 3.96138655466 0.0
0.451361042387 3.96112774725 0.0
0.771976832233 3.96138887156 0.0
1.88843481911 3.95881554986 0.0
1.61277513709 3.78538823015 0.0
2.13311214501 3.79435403671 0.0
0.0668878549946 3.79435403671 0.0
1.76678797151 3.60286552601 0.0
0.311702446283 3.9611157379 0.0
1.02877762737 3.96159282031 0.0
1.40830122607 3.96143175203 0.0
1.25214210333 3.957355862 0.0
1.59476493393 3.9048774062 0.0
1.56950979124 3.96148017208 0.0
0.890017020275 3.96125792969 0.0
2.03089110475 3.96040268709 0.0
0.169108895255 3.96040268709 0.0
0.939722125942 3.68539157065 0.0
1.41686981874 3.69192854313 0.0
0.0426348006718 3.96101756902 0.0
2.15736519933 3.96101756902 0.0
1.36077308019 3.79177204211 0.0
0.817982383499 3.78962669257 0.0
1.05834720932 3.78780184893 0.0
0.578349529346 3.78781530011 0.0
1.77992711518 3.87652731382 0.0
0.417982153133 3.87594990465 0.0
1.84363633012 3.77741329286 0.0
1.52244994479 3.87704541475 0.0
0.657426528912 3.87734838249 0.0
1.13742651778 3.87734834025 0.0
0.898116026439 3.8800466833 0.0
1.56984259435 3.64465823131 0.0
1.08983016076 3.6446495206 0.0
0.609942357805 3.64483976081 0.0
1.29451769374 3.79627773068 0.0
0.0893439668432 3.96574839433 0.0
2.11065603316 3.96574839433 0.0
2.01422398896 3.86980625824 0.0
0.185776011038 3.86980625824 0.0
0.305957237756 3.87340573745 0.0
1.72977480551 3.68665973332 0.0
1.25418096296 3.69351129461 0.0
0.629999973146 3.96272981435 0.0
1.11000003579 3.96272983221 0.0
0.772975283819 3.69297597031 0.0
1.89089074715 3.86951346173 0.0
0.445448577516 3.69456159386 0.0
1.82621986864 3.89678318705 0.0
2.07135424223 3.81165410377 0.0
0.128645757768 3.81165410377 0.0
0.373320289473 3.89968791662 0.0
1.79000004014 3.96541718891 0.0
0.383302070088 3.78976392323 0.0
0.409457623385 3.96502881851 0.0
1.55531527123 3.78787141386 0.0
1.34861332978 3.89383287415 0.0
0.593245985735 3.89483466551 0.0
0.833245353375 3.89479604398 0.0
1.0732444554 3.8948349405 0.0
0.911896623122 3.59194725763 0.0
0.187580554011 3.70699710313 0.0
2.01241944599 3.70699710313 0.0
1.39201907571 3.59233063354 0.0
2.09635520798 3.90516200201 0.0
0.103644792024 3.90516200201 0.0
1.89086147526 3.72621461413 0.0
1.02102684616 3.70044819701 0.0
1.49813234221 3.70194667869 0.0
0.53965669049 3.70593418829 0.0
1.63719578665 3.69772473547 0.0
0.685447658936 3.70127585046 0.0
1.16541741817 3.70128744764 0.0
0.901649266036 3.76287226775 0.0
0.992351690321 3.90662993531 0.0
1.69131894868 3.90657323657 0.0
1.9699561555 3.91599371502 0.0
0.230043844497 3.91599371502 0.0
1.61980840676 3.85005402918 0.0
2.04685187594 3.90639759008 0.0
0.153148124058 3.90639759008 0.0
0.512139828486 3.90538520837 0.0
1.43057458921 3.90702644399 0.0
0.749149996349 3.90689574876 0.0
[...]
POINT_DATA 1163
VECTORS Displacement float
0.0 0.0 0
0.0 0.0 0
0.0104063770335 -0.00174068899199 0
-0.0107858686173 -0.00164912819341 0
0.0 0.0 0
0.0 0.0 0
0.0 0.0 0
0.0 0.0 0
0.0 0.0 0
0.0 0.0 0
0.0 0.0 0
0.0 0.0 0
0.0 0.0 0
0.0 0.0 0
0.0 0.0 0
0.0 0.0 0
0.0 0.0 0
0.0 0.0 0
0.0 0.0 0
0.0 0.0 0
0.0 0.0 0
0.0 0.0 0
0.0 0.0 0
0.0 0.0 0
0.0 0.0 0
0.0 0.0 0
0.0 0.0 0
0.0 0.0 0
0.0 0.0 0
0.0 0.0 0
0.0 0.0 0
0.0 0.0 0
0.0 0.0 0
0.0 0.0 0
0.0 0.0 0
0.00283528261673 -0.00216351291651 0
0.00506854470705 -0.00284043021916 0
0.006830508558 -0.0029379539767 0
0.00801376823952 -0.00276091194067 0
0.00879826101972 -0.00250599157711 0
0.0093025949459 -0.00224679969621 0
0.00959891186441 -0.0020456017004 0
0.0098093863771 -0.00189818947517 0
0.00994926017185 -0.0018042177762 0
0.0100659026042 -0.00176164942952 0
0.0101787571315 -0.00174367783011 0
0.0102934470603 -0.00173998446137 0
0.0104070935495 -0.00162754303472 0
0.0104060100828 -0.00150515019842 0
0.0103961227386 -0.00137334401408 0
0.0103727161349 -0.00123401965474 0
0.0103326188337 -0.00109228550522 0
0.0102738634023 -0.000957066064546 0
0.0101922752436 -0.000826918852495 0
0.0100913837621 -0.0007189768595 0
0.00996492012709 -0.000627339002768 0
0.00982168488749 -0.000568361357277 0
0.00964667868546 -0.000538201915217 0
0.00944963533643 -0.000553069632156 0
0.00923463887117 -0.000617431374477 0
0.00898688126569 -0.000729411461489 0
0.00872353196046 -0.000906564243242 0
0.00842063394362 -0.00114548152583 0
0.00809637849025 -0.00146757529813 0
0.00773975694277 -0.00186619401176 0
0.00735836288488 -0.00237093511493 0
0.00692503709915 -0.00298239540807 0
0.00647261034969 -0.00372028897182 0
0.00601073863864 -0.00459793914396 0
0.00548941408024 -0.00561131052635 0
0.00494913346918 -0.00681157363856 0
0.00434650949865 -0.00820785662587 0
0.00375949701226 -0.00982546847998 0
0.00310676245575 -0.0116870893591 0
0.00242893824726 -0.013850741769 0
0.00173794487647 -0.0163275797605 0
0.00111941377251 -0.0191629482122 0
0.000508389169889 -0.0224608704805 0
-0.000190005532908 -0.0262611062913 0
-0.000716274685136 -0.0306490193612 0
-0.00113617328701 -0.035824936039 0
-0.00122127906658 -0.0420102435582 0
-0.000658540119389 -0.0498021488132 0
0.00104145077662 -0.0596072871086 0
0.00297390891379 -0.0686559013045 0
0.00459615480692 -0.0774054219636 0
0.00612358289521 -0.0855303621675 0
0.00736919363103 -0.0932586513053 0
0.00840353159518 -0.100522980048 0
0.0091384194343 -0.107359474769 0
0.00970805894549 -0.113693532884 0
0.00996386739282 -0.119655657858 0
0.00995699548715 -0.125149494031 0
0.00971553690121 -0.130165803327 0
0.00929532649359 -0.13468044157 0
0.00864297781456 -0.138708786611 0
0.00780942557516 -0.142227314037 0
0.00682173354283 -0.145220622241 0
0.00568311462012 -0.147689881322 0
0.00438867557747 -0.149622594554 0
0.00296632644162 -0.151007147965 0
0.00144233285944 -0.151824210347 0
-0.000276360096184 -0.152044629887 0
-0.00185148275045 -0.151825165569 0
-0.00331134067042 -0.150990818233 0
-0.00470321216829 -0.14960131822 0
-0.00599400081709 -0.147660440908 0
-0.0071338773898 -0.145184745375 0
-0.00812057914885 -0.142180633982 0
-0.0089397611372 -0.138655610036 0
-0.0095664984417 -0.134625347227 0
-0.0100137037484 -0.130093330338 0
-0.0102057798904 -0.125080755077 0
-0.0102419251508 -0.119570551778 0
-0.00996517455553 -0.113628518225 0
-0.00944480555952 -0.107264961893 0
-0.0086721318214 -0.100424111834 0
-0.00765144827938 -0.093152662736 0
-0.00635011595049 -0.0854345712361 0
-0.00490625295032 -0.0772776758865 0
-0.00315825287758 -0.0685620741412 0
-0.0013525869311 -0.0594499669365 0
0.000370223006142 -0.0496441128471 0
0.0008967143486 -0.0419143394945 0
0.000694911780203 -0.0357140429932 0
0.000337916795757 -0.0306155634786 0
-0.000276830923022 -0.0262187193223 0
-0.000920314491572 -0.0224492036901 0
-0.00158114130277 -0.0192090868842 0
-0.00223588360927 -0.0164040940739 0
-0.00292580674512 -0.0139296962709 0
-0.00357201479472 -0.0117816973179 0
-0.00425354254839 -0.0099256003626 0
-0.00486666177452 -0.0083286825236 0
-0.00546625747596 -0.00696325623078 0
-0.00600361330534 -0.0057748471954 0
-0.00653813803684 -0.00476351731037 0
-0.00705371567555 -0.00391425472536 0
-0.00750989450637 -0.00319616290802 0
-0.00794013352035 -0.00261266757167 0
-0.00833538428808 -0.00212824038257 0
-0.00870477798708 -0.0017476640741 0
-0.00902877426185 -0.00144658585869 0
-0.00933489421194 -0.00122883625338 0
-0.00960080209881 -0.00107252551017 0
-0.00984479026732 -0.000978738266552 0
-0.0100615108808 -0.00094137577779 0
-0.0102391312535 -0.000939990368974 0
-0.0103960970186 -0.000979332025652 0
-0.0105213052705 -0.00103907045535 0
-0.0106224681507 -0.00112633212789 0
-0.0106951995979 -0.00121970792417 0
-0.0107446900966 -0.00132093108766 0
-0.010773458592 -0.00141887886573 0
-0.010785533022 -0.00150730383423 0
-0.0107867718405 -0.00158393490033 0
-0.0107217728337 -0.00164823889624 0
-0.0106631721856 -0.00165266355795 0
-0.0106154722053 -0.0016746613283 0
-0.0105729924927 -0.00172695515067 0
-0.010513036502 -0.0018429151077 0
-0.0103791863062 -0.00202563079568 0
-0.0101540488633 -0.00227667082479 0
-0.00969137110926 -0.00260242452127 0
-0.00890477780137 -0.00293093088444 0
-0.00765372802962 -0.00318214256171 0
-0.00571752536354 -0.00312535112037 0
-0.00321377742201 -0.00240890259103 0
-0.0110789984448 -0.00120185214956 0
0.00992190280394 -0.000725195735895 0
-0.017084407382 -0.00932910113631 0
-0.0216010660833 -0.0388703646982 0
-0.0094545679805 -0.0666192202757 0
0.0103046187711 -0.0653920759004 0
0.0216427282174 -0.0352306723981 0
0.016202660418 -0.00803609481341 0
-0.01064717839 -0.00102819694888 0
0.00989935291561 -0.000848913322868 0
0.0116554618155 -0.00199834195635 0
0.0183323663342 -0.0230372325364 0
-0.0127175749214 -0.00332633047466 0
-0.0193963596896 -0.0257657159651 0
0.0183533451173 -0.0733982197187 0
-0.0179679716153 -0.0758817447296 0
0.000641048297656 -0.0981891158658 0
-0.0109763387048 -0.000973314097493 0
0.0102129425387 -0.000448269798314 0
0.0116284318532 -0.00578157894972 0
-0.0126814997232 -0.0086682952752 0
0.0183472691996 -0.0458570045181 0
-0.0190041562963 -0.051414507795 0
0.00835676427715 -0.110089253701 0
-0.0106586455598 -0.105293808474 0
0.0111421646846 -0.0126748824619 0
-0.0120734762969 -0.0173025548685 0
0.0168681711791 -0.0756969622528 0
-0.0169785274869 -0.0798983979279 0
0.0134900174167 -0.103566699435 0
-0.00429733508457 -0.120564615102 0
0.0116204651066 -0.00248320628299 0
0.00988909517565 -0.00108789657934 0
-0.0106160892081 -0.00135881169364 0
0.010057974713 -0.00129068521853 0
0.00868218790324 -0.000996216207589 0
-0.00964189193128 -0.00118059635283 0
-0.0103528648755 -0.00209974362861 0
0.00993137280997 -0.000488546339851 0
-0.0104715467406 -0.000803027543031 0
0.0192732143535 -0.0169955767614 0
0.0173058128278 -0.0453117152867 0
-0.0163860790456 -0.0460527359663 0
0.000776909844931 -0.0590867529168 0
-0.0198712342691 -0.0187952864106 0
0.0128594020218 -0.028042926763 0
-0.013920141433 -0.0325885461652 0
-0.0143630602536 -0.101371099452 0
0.00232180196691 -0.123983954282 0
0.0096692743822 -0.00305940396243 0
-0.0132274717025 -0.00335729991705 0
-0.0100687447417 -0.00498734586533 0
0.0146167287886 -0.0953509283178 0
-0.0105344680081 -0.0010175525905 0
0.0100263946685 -0.000839924122139 0
0.00967393718957 -0.000509668302545 0
-0.0101022382622 -0.00113479008021 0
0.0210387845507 -0.0549639813639 0
-0.0208951339293 -0.0592145302093 0
0.0137329113155 -0.0853961624356 0
-0.00620410042707 -0.0934446267521 0
-0.0170539356336 -0.0144154429007 0
-0.00696652991201 -0.000892851846289 0
0.00593627478636 -0.00066047873002 0
-0.00446067209595 -0.0282565810799 0
0.0139521451391 -0.0142343249333 0
-0.013131820583 -0.00691420201777 0
-0.0143186651558 -0.0158252886532 0
0.0125109103333 -0.0060089781721 0
0.0056611328453 -0.0282578729474 0
0.00865621819998 -0.00718303580039 0
-0.00902299743404 -0.0105112229064 0
0.0136983825366 -0.0586929188373 0
-0.0143730331751 -0.0656836460716 0
0.00940851155262 -0.122033556725 0
-0.010897953933 -0.11871553265 0
0.00992888452748 -0.000564241284846 0
-0.010864529923 -0.000879639464212 0
0.0157205102884 -0.010591749924 0
0.0137835920569 -0.00461016706552 0
0.00841857625014 -0.0172544671935 0
-0.00690524700422 -0.129689246587 0
-0.0105432392474 -0.00152710677225 0
0.00979220120732 -0.00145791847993 0
-0.012116779031 -0.00170799301287 0
-0.00980478852693 -0.0016689006055 0
-0.00898304384486 -0.00278143946946 0
0.0102233397152 -0.0386589723205 0
0.0109720931486 -0.000907299679245 0
-0.0108936174439 -0.0448484720483 0
-0.000854795196664 -0.133118805096 0
-0.00932719106134 -0.0244884994842 0
-0.0142715828367 -0.0977853820947 0
0.0052389002639 -0.132593369378 0
-0.0148969045388 -0.00687303062065 0
0.0213204854144 -0.0346474659193 0
-0.0218052770495 -0.0387945703589 0
-0.0131790141938 -0.0813773450114 0
0.00715173630909 -0.0887768028203 0
0.00825902937141 -0.00109728448975 0
0.00893140869028 -0.00194897411121 0
-0.00911771107296 -0.00338109828559 0
0.00974248052156 -0.0216646704937 0
-0.0115197687481 -0.0192940816333 0
0.0122728632214 -0.111188954522 0
0.0128956316044 -0.089740789589 0
0.00968245664139 -0.000441348623515 0
-0.0100358943484 -0.000894087436461 0
0.0064432913642 -0.00116454478679 0
-0.0072568922819 -0.00131087777908 0
0.00731497559106 -0.0104420100844 0
0.00784916417423 -0.00490471676329 0
-0.00723192055232 -0.0150838947194 0
-0.00790266453591 -0.00744109105926 0
-0.012892274403 -0.0831637676626 0
0.00917197510308 -0.000879528672614 0
0.0187217794834 -0.0151042524381 0
0.00926916284551 -0.00151852707665 0
-0.010166392301 -0.00163147692295 0
0.0085676027793 -0.00262647748223 0
-0.00936179848111 -0.00177801406521 0
-0.00417218324973 -0.13623661782 0
0.0122426642099 -0.0761958641612 0
0.0112191102649 -0.118958439496 0
0.0135412089301 -0.0196017715984 0
0.0070040970209 -0.0241661771365 0
-0.0119798090332 -0.116312396409 0
0.00995204266812 -0.000609258725501 0
-0.0103698030525 -0.000876817432293 0
-0.0100319599691 -0.044401333065 0
0.0186416182934 -0.0296023048037 0
-0.0106665056643 -0.00149675835655 0
0.0101921577684 -0.0014886016346 0
0.019954768917 -0.0554606262707 0
-0.0194055534051 -0.0579870883879 0
-0.00200950672275 -0.0788822621341 0
-0.0199068845194 -0.0188009805754 0
0.0116142777486 -0.0035070564967 0
-0.0126358173611 -0.00537086244858 0
0.0120101804943 -0.00188781273841 0
0.0183250347774 -0.03291351089 0
-0.0192441480598 -0.0374232725097 0
0.00479741101222 -0.106794891071 0
-0.0143274375037 -0.0942508274455 0
0.015400534292 -0.0115022882316 0
0.000519671770959 -0.0366147035703 0
-0.0158274922057 -0.0127686188467 0
0.0167332247692 -0.0666332600616 0
-0.0106215423587 -0.00125166160949 0
0.0101702118829 -0.00114996206243 0
0.0100215806949 -0.000519734740781 0
-0.0107793022912 -0.000819431979471 0
-0.0114008511803 -0.00163829548375 0
0.0136258064559 -0.00499615027817 0
0.0121550422899 -0.0445224462843 0
-0.00785219443814 -0.0330304742075 0
0.00218838984931 -0.137671746022 0
-0.0182343638651 -0.0328293164788 0
0.0106345414575 -0.000855385400873 0
-0.0146403872291 -0.00576984271712 0
0.0105352378259 -0.00197886416334 0
0.00958824720146 -0.000914357390101 0
-0.0104843589416 -0.00109671408217 0
-0.0111911581136 -0.00338084252177 0
0.00808115838337 -0.00314558179794 0
-0.0139010647415 -0.0038930056348 0
-0.00814643731579 -0.00499128083258 0
0.0204168514057 -0.0223044219612 0
0.017614830206 -0.0803300144966 0
-0.0156691362205 -0.0242853862899 0
-0.0170929413184 -0.0855844001542 0
-0.000719400945436 -0.114263232538 0
-0.00723368678531 -0.0200907288558 0
-0.00936238044377 -0.000989474456643 0
0.00836747052929 -0.000720147479192 0
0.011027786152 -0.0149888903898 0
0.00997681013811 -0.00103842545755 0
-0.0106084286999 -0.00116642041273 0
0.0105476876547 -0.00125092951519 0
-0.00460590752592 -0.0517479735573 0
0.019562323282 -0.0224601729265 0
-0.0176026881691 -0.0115896107285 0
0.0166989960346 -0.0100468399001 0
-0.0197772322042 -0.0248381097179 0
0.0064223720004 -0.0511870865697 0
-0.0143229017875 -0.0621207553178 0
-0.00734725738167 -0.114466535214 0
0.0113329315302 -0.00858448464392 0
0.00993632304101 -0.000406310999233 0
-0.0105066148858 -0.000852269278646 0
0.0165630189744 -0.0156843440715 0
0.0099729102865 -0.000678795151259 0
-0.0105958378555 -0.000901829073592 0
-0.01255764389 -0.0127330798266 0
0.0180565067195 -0.0603474207839 0
-0.0183294692765 -0.0660690766034 0
0.0112425345736 -0.108671473978 0
0.00815267543562 -0.00164270046064 0
-0.0090716219864 -0.00178826351857 0
-0.00883736634589 -0.130527312191 0
-0.0105928785801 -0.00157653401217 0
0.00994862355304 -0.00155773549766 0
0.0089306448927 -0.0500708366662 0
-0.0101259518932 -0.0577705175712 0
0.00733149288885 -0.133317815454 0
-0.0113362678148 -0.00103077963842 0
-0.0122529978109 -0.00205178486741 0
0.0155672286248 -0.0875942070726 0
0.0103691245519 -0.000528123617815 0
0.0125323519933 -0.102266774059 0
0.0138001187442 -0.00416348286525 0
0.00321417843537 -0.0757443374799 0
-0.0214097276932 -0.0264216571285 0
0.0146350561742 -0.0464834954306 0
-0.0155748481612 -0.0529223849407 0
0.00751256789287 -0.121474362497 0
0.0062303407612 -0.0138575768301 0
-0.0166027504637 -0.0678721622953 0
0.00592460542923 -0.00122054250903 0
0.00939798733818 -0.00055588683471 0
-0.00967231323808 -0.00119119228766 0
-0.00645636216238 -0.0189685187737 0
-0.0125391763801 -0.0928615454822 0
0.00678592289759 -0.0301990469278 0
-0.0124793252113 -0.110651781916 0
0.00876740005037 -0.00127864287042 0
0.0100844242667 -0.000852798293332 0
-0.0105151904868 -0.00103475859774 0
-0.00888301416141 -0.0023764944145 0
0.0139952789881 -0.00659545795679 0
0.00980414349582 -0.000493449047328 0
-0.0101588440406 -0.000855635263903 0
-0.0153405258156 -0.00970732713759 0
0.0212190418119 -0.0451029699604 0
-0.0215094586892 -0.049563283589 0
0.0100085590615 -0.0906419301661 0
-0.0101347131231 -0.0920639764546 0
0.00484334641666 -0.00075774496834 0
-0.00507064667507 -0.00092613131949 0
0.0101887241004 -0.00475017315982 0
-0.00910230607238 -0.119170241005 0
-0.0108479971125 -0.00723420808943 0
0.015479427539 -0.0932758765983 0
-0.0192498221347 -0.0718949470441 0
-0.00379583175631 -0.105379130915 0
-0.0162780956856 -0.0182461338114 0
-0.00388540215335 -0.000681201794819 0
0.00341665953892 -0.000577914372769 0
-0.00606134734063 -0.00147599873756 0
0.0100563342885 -0.000683344557471 0
-0.0107121007927 -0.0014616929814 0
0.0213610564126 -0.0280077788858 0
0.01954875051 -0.0671152143372 0
-0.0129263358925 -0.10537486816 0
-0.0151999269014 -0.00576187843005 0
0.0148287486235 -0.0355372786959 0
-0.016127391499 -0.0416972071888 0
0.00518718940684 -0.119786952682 0
0.00970373184199 -0.00113762830672 0
-0.0105292595581 -0.00127313666948 0
0.00689829061844 -0.00729486254357 0
0.0109187453086 -0.0229102789111 0
0.00937448695737 -0.000710113933444 0
-0.0103651111095 -0.000965579334973 0
-0.00682400641346 -0.0106254488255 0
0.0101034846789 -0.0595621250709 0
-0.0111262342298 -0.0673259957859 0
-0.0100695140275 -0.12710476524 0
0.00877443104748 -0.12983644968 0
0.014279883091 -0.0566822972283 0
0.0139536809788 -0.0109621047046 0
0.00948369585406 -0.00175387424913 0
-0.0103252657679 -0.00182093654691 0
0.019664540658 -0.0390637340738 0
0.00745815917375 -0.00402093537278 0
0.0128168397537 -0.00287006321984 0
0.00179963976142 -0.0145299976426 0
0.0148012193234 -0.0308949135894 0
-0.00862596350736 -0.00680639908344 0
-0.0135988176265 -0.0334124582458 0
-0.00954522410847 -0.00124375847856 0
-0.0197872933641 -0.0434250360774 0
-0.0128288005309 -0.00256923711831 0
0.0162406204524 -0.0241207245661 0
-0.00779078911513 -0.00316966993327 0
-0.00415527153919 -0.00139825573797 0
0.00366218897063 -0.00126297244557 0
0.0102160965543 -0.00133477150051 0
-0.0106659319753 -0.00138808459528 0
0.010663682471 -0.00128507016641 0
0.00570806914223 -0.0166757695674 0
-0.00965274196241 -0.0117179183238 0
-0.010620335302 -0.00157702415522 0
0.0100595525914 -0.00158853659271 0
-0.00923749602796 -0.00525800195983 0
0.00857809493545 -0.000868345048791 0
-0.0114114338749 -0.0028502511841 0
-0.00159275271197 -0.0186038275485 0
0.0100771072733 -0.00809222940705 0
-0.0182829680734 -0.0129917166457 0
-0.0114918773825 -0.00222673723899 0
0.0216142842048 -0.0430800058799 0
-0.00645751179762 -0.0765937899488 0
0.0048610181457 -0.0177148674808 0
-0.00673970291662 -0.138039287834 0
0.0162337367866 -0.0847786509771 0
0.00989065952045 -0.000667106481189 0
-0.0107327052772 -0.000905038546321 0
0.00706109667649 -0.00268188374165 0
0.0137635458564 -0.0698536946639 0
-0.00259862610848 -0.142933941756 0
-0.0213561571259 -0.0473413677747 0
-0.0198259268677 -0.0668373311885 0
-0.00323220553443 -0.0969526355496 0
-0.0179804786482 -0.0187695732197 0
0.0202118151395 -0.0630904241281 0
0.0100753471678 -0.0852882834704 0
0.0109402734834 -0.121310437156 0
0.0091926639871 -0.00174286444501 0
0.0100499914838 -0.00105765436074 0
-0.0105876422317 -0.00117825394336 0
-0.00565236906716 -0.0273902276174 0
-0.00660676971131 -0.0398843404111 0
0.000364539673371 -0.140825331442 0
0.00399532700487 -0.14011465658 0
-0.00868650827057 -0.00111487198798 0
0.0077611105777 -0.000930886784232 0
0.0155758751714 -0.00794555336099 0
0.00997099070696 -0.0012976472887 0
-0.0106048067689 -0.00137238298106 0
0.0111978003865 -0.00115425657649 0
0.00409119133649 -0.0388380336326 0
-0.0112850124667 -0.1064196416 0
-0.0220413700157 -0.0335113137726 0
0.0069633189328 -0.0740702493209 0
0.00808323199652 -0.0024072745789 0
0.0138438344787 -0.0922580313294 0
-0.00806565452855 -0.00400949398997 0
-0.0106995207377 -0.00156030615412 0
0.0102534244003 -0.00158755717579 0
-0.0158123663503 -0.0916141120108 0
0.00210484836904 -0.112401499682 0
-0.0172986588889 -0.0308174984616 0
-0.0110005548071 -0.00086767011855 0
0.0111082844899 -0.00117062612373 0
0.0101382277615 -0.000443578074846 0
0.00997844167691 -0.000668418534083 0
-0.0105021072709 -0.000897597360597 0
0.00967396291446 -0.00155047682776 0
0.00729320311103 -0.0039701973476 0
-0.00713414650749 -0.00614067978164 0
0.0171317492755 -0.0110195928314 0
0.0199850545639 -0.0288744795016 0
-0.0208297695645 -0.0319630397683 0
-0.0155197529857 -0.0796339577614 0
0.00382612728475 -0.0939257827869 0
-0.0136930186178 -0.00486197923205 0
-0.00783558682144 -0.101459000119 0
-0.0165280235013 -0.00928641242589 0
0.0204378886572 -0.0548770463071 0
-0.0150056203554 -0.0123862565158 0
-0.0204934183668 -0.060156208765 0
0.0100063017656 -0.000436647388244 0
0.0218514928978 -0.0396583788383 0
-0.0106620670383 -0.000792610993879 0
-0.0220960507292 -0.0431966458763 0
-0.0103298100225 -0.0788057951218 0
0.010170924909 -0.0787009100254 0
0.0114605850644 -0.0161400261717 0
0.0138948304409 -0.0144207556175 0
-0.0121013253078 -0.0213552434674 0
-0.0161326512098 -0.0882530992654 0
-0.00186450174783 -0.123110009326 0
0.0112284473459 -0.0994221793641 0
0.0114385473461 -0.11103891959 0
0.0200962753666 -0.0395412587773 0
-0.0206995880932 -0.0443755187359 0
0.00752541328029 -0.100857091414 0
-0.012285985249 -0.094871652927 0
0.00943519047967 -0.000512639487319 0
-0.00966257216836 -0.00106466801054 0
-0.0100614962626 -0.00278591812413 0
0.0175490922634 -0.0108847973652 0
0.0153746082322 -0.0669584661741 0
0.0111304614094 -0.115172083046 0
0.0126211054914 -0.00495348578958 0
0.00908533279522 -0.000718483085881 0
-0.00818413030126 -0.0490441430284 0
0.00581847552834 -0.137376036229 0
0.0100621527766 -0.000570962701534 0
-0.011095734328 -0.000979616295996 0
-0.00409206667759 -0.0659575896747 0
-0.0105467299826 -0.00167665014542 0
0.00982710600083 -0.0016545245512 0
-0.0121071566289 -0.00232827988169 0
-0.019129985685 -0.0148279843156 0
-0.00922851567401 -0.00147394473082 0
-0.0138215618396 -0.00738513790624 0
0.00998840671978 -0.000437417917667 0
-0.0105942703516 -0.000987603329477 0
0.0127726254274 -0.00857119177367 0
-0.00377884040912 -0.000590153726528 0
0.00334206087082 -0.000454908595142 0
-0.0114165973442 -0.00120724452841 0
-0.00383796661148 -0.0159362251347 0
0.00923498494616 -0.00924055450393 0