# vtk DataFile Version 2.0
Generated with Solid Solver
ASCII
DATASET UNSTRUCTURED_GRID
POINTS 1163 float 
0.0 3.5 0.0
2.2 3.5 0.0
2.2 4.0 0.0
0.0 4.0 0.0
0.0687499999999 3.5 0.0
0.1375 3.5 0.0
0.20625 3.5 0.0
0.275 3.5 0.0
0.343749999999 3.5 0.0
0.412499999999 3.5 0.0
0.481249999999 3.5 0.0
0.549999999999 3.5 0.0
0.618749999998 3.5 0.0
0.687499999998 3.5 0.0
0.756249999998 3.5 0.0
0.824999999998 3.5 0.0
0.893749999998 3.5 0.0
0.962499999997 3.5 0.0
1.03125 3.5 0.0
1.1 3.5 0.0
1.16875 3.5 0.0
1.2375 3.5 0.0
1.30625 3.5 0.0
1.375 3.5 0.0
1.44375 3.5 0.0
1.5125 3.5 0.0
1.58125 3.5 0.0
1.65 3.5 0.0
1.71875 3.5 0.0
1.7875 3.5 0.0
1.85625 3.5 0.0
1.925 3.5 0.0
1.99375 3.5 0.0
2.0625 3.5 0.0
2.13125 3.5 0.0
2.2 3.56430812579 0.0
2.2 3.6227083524 0.0
2.2 3.67574343203 0.0
2.2 3.72390623714 0.0
2.2 3.76764438299 0.0
2.2 3.80736436348 0.0
2.2 3.84343531161 0.0
2.2 3.87619247056 0.0
2.2 3.90594026646 0.0
2.2 3.93295517223 0.0
2.2 3.9574882542 0.0
2.2 3.97976750927 0.0
2.18000003888 4.0 0.0
2.15999995974 4.0 0.0
2.13999995594 4.0 0.0
2.12000003893 4.0 0.0
2.0999999813 4.0 0.0
2.07999993507 4.0 0.0
2.06000001965 4.0 0.0
2.04000002354 4.0 0.0
2.01999993997 4.0 0.0
1.99999999426 4.0 0.0
1.98000004623 4.0 0.0
1.95999996625 4.0 0.0
1.93999996787 4.0 0.0
1.92000005069 4.0 0.0
1.90000001292 4.0 0.0
1.87999994967 4.0 0.0
1.86000003245 4.0 0.0
1.84000003166 4.0 0.0
1.81999995194 4.0 0.0
1.80000002065 4.0 0.0
1.78000005962 4.0 0.0
1.75999997703 4.0 0.0
1.73999998149 4.0 0.0
1.72000006236 4.0 0.0
1.70000000651 4.0 0.0
1.67999995967 4.0 0.0
1.66000004242 4.0 0.0
1.64000004304 4.0 0.0
1.61999996152 4.0 0.0
1.6000000096 4.0 0.0
1.58000006667 4.0 0.0
1.55999998704 4.0 0.0
1.53999998381 4.0 0.0
1.52000006764 4.0 0.0
1.5000000299 4.0 0.0
1.47999996242 4.0 0.0
1.46000004337 4.0 0.0
1.4400000454 4.0 0.0
1.41999996386 4.0 0.0
1.40000002834 4.0 0.0
1.38000006734 4.0 0.0
1.35999998576 4.0 0.0
1.33999998537 4.0 0.0
1.32000006658 4.0 0.0
1.30000001585 4.0 0.0
1.27999996279 4.0 0.0
1.26000004759 4.0 0.0
1.24000004493 4.0 0.0
1.2199999616 4.0 0.0
1.20000000906 4.0 0.0
1.18000006792 4.0 0.0
1.15999998616 4.0 0.0
1.13999999119 4.0 0.0
1.12000007157 4.0 0.0
1.1 4.0 0.0
1.07999992843 4.0 0.0
1.06000000881 4.0 0.0
1.04000001384 4.0 0.0
1.01999993209 4.0 0.0
0.999999990948 4.0 0.0
0.98000003841 4.0 0.0
0.959999955072 4.0 0.0
0.939999952416 4.0 0.0
0.920000037214 4.0 0.0
0.899999984154 4.0 0.0
0.879999933427 4.0 0.0
0.860000014636 4.0 0.0
0.840000014246 4.0 0.0
0.819999932662 4.0 0.0
0.79999997166 4.0 0.0
0.780000036145 4.0 0.0
0.759999954604 4.0 0.0
0.73999995663 4.0 0.0
0.72000003758 4.0 0.0
0.699999970103 4.0 0.0
0.679999932361 4.0 0.0
0.660000016189 4.0 0.0
0.640000012962 4.0 0.0
0.61999993333 4.0 0.0
0.599999990406 4.0 0.0
0.58000003848 4.0 0.0
0.559999956964 4.0 0.0
0.539999957581 4.0 0.0
0.520000040329 4.0 0.0
0.499999993489 4.0 0.0
0.479999937647 4.0 0.0
0.460000018512 4.0 0.0
0.440000022972 4.0 0.0
0.419999940378 4.0 0.0
0.399999979352 4.0 0.0
0.380000048063 4.0 0.0
0.359999968347 4.0 0.0
0.339999967553 4.0 0.0
0.320000050328 4.0 0.0
0.299999987077 4.0 0.0
0.279999949312 4.0 0.0
0.260000032129 4.0 0.0
0.240000033752 4.0 0.0
0.219999953776 4.0 0.0
0.200000005737 4.0 0.0
0.180000060031 4.0 0.0
0.159999976465 4.0 0.0
0.139999980354 4.0 0.0
0.120000064926 4.0 0.0
0.100000018697 4.0 0.0
0.0799999610675 4.0 0.0
0.0600000440571 4.0 0.0
0.0400000402596 4.0 0.0
0.0199999611169 4.0 0.0
0.0 3.97976750927 0.0
0.0 3.9574882542 0.0
0.0 3.93295517223 0.0
0.0 3.90594026646 0.0
0.0 3.87619247056 0.0
0.0 3.84343531161 0.0
0.0 3.80736436348 0.0
0.0 3.76764438299 0.0
0.0 3.72390623714 0.0
0.0 3.67574343203 0.0
0.0 3.6227083524 0.0
0.0 3.56430812579 0.0
0.249757963562 3.75212589829 0.0
1.94999996706 3.74954522137 0.0
0.488710285893 3.75947702441 0.0
0.726520490699 3.7655965719 0.0
0.967283134849 3.7597072979 0.0
1.20619032017 3.75831098673 0.0
1.45842774915 3.76733088374 0.0
1.69012076678 3.7622332834 0.0
0.130754044069 3.86878249167 0.0
2.06924595593 3.86878249167 0.0
1.8299999918 3.84622455633 0.0
1.56816462369 3.85034872999 0.0
0.369913859351 3.84868157925 0.0
0.608733620231 3.84706187144 0.0
1.33069778866 3.84790908234 0.0
0.84323446252 3.84762979148 0.0
1.08873170817 3.84705870913 0.0
0.250539365135 3.87785524304 0.0
1.94967747948 3.87849609822 0.0
1.73218750075 3.8916046151 0.0
0.468661874066 3.89189322974 0.0
1.47574192429 3.89639134117 0.0
0.704258110321 3.8963912684 0.0
1.18331258449 3.8976320365 0.0
0.949999953744 3.89208018478 0.0
1.64795374468 3.91749779939 0.0
0.548928463645 3.91905583847 0.0
1.38619509199 3.91928594438 0.0
0.788926872841 3.91906062101 0.0
1.27071160784 3.91777932845 0.0
1.02999997296 3.91685174433 0.0
1.81733541416 3.69950870754 0.0
1.86999999106 3.91823503401 0.0
0.071252620538 3.93011431841 0.0
2.12874737946 3.93011431841 0.0
2.07400690796 3.74293885365 0.0
0.125993092043 3.74293885365 0.0
0.32995676804 3.92118147353 0.0
2.00999996712 3.92542383197 0.0
0.190000032884 3.92542383197 0.0
1.56698738743 3.72218882919 0.0
1.33000000474 3.72531695685 0.0
0.848014510843 3.71986098938 0.0
1.09024665585 3.72285801424 0.0
0.610276609989 3.72290563624 0.0
1.54999998543 3.92414142844 0.0
0.629999973146 3.92414137652 0.0
0.869999974031 3.92414141814 0.0
1.11000003579 3.92414141267 0.0
1.79030638642 3.92649353654 0.0
0.370434802927 3.72513294336 0.0
0.410903135411 3.92892991244 0.0
1.33000002597 3.93737911571 0.0
0.129927648482 3.94112154503 0.0
2.07007235152 3.94112154503 0.0
1.93000000928 3.93875927586 0.0
0.26999999072 3.93875927586 0.0
1.40966706061 3.83880068991 0.0
0.770332962441 3.83880062149 0.0
1.24904900022 3.84293377683 0.0
1.01033287484 3.83880060723 0.0
0.530342681434 3.83880307444 0.0
0.189895273961 3.63486992823 0.0
2.00989835291 3.62845703161 0.0
0.998888153878 3.61665036233 0.0
1.47894673873 3.61675180774 0.0
0.51733910646 3.62937665489 0.0
0.705112628302 3.618743723 0.0
1.66672137035 3.63168728155 0.0
1.18508242495 3.61871739348 0.0
1.71000003443 3.94408608591 0.0
0.489999965568 3.94463856597 0.0
1.44983363802 3.94422347836 0.0
0.729999997105 3.94465012565 0.0
1.21016639734 3.94422345842 0.0
0.928621800545 3.94440037102 0.0
2.00626203014 3.81543543551 0.0
0.193627962274 3.81528928332 0.0
1.66628164144 3.83559795895 0.0
1.75661718781 3.81065958113 0.0
1.61143779865 3.94859227761 0.0
0.991673865748 3.95161238438 0.0
0.0604617941233 3.86281264864 0.0
2.13953820588 3.86281264865 0.0
0.300965570716 3.8114148258 0.0
0.2970894797 3.66361086085 0.0
0.398842167194 3.60449226805 0.0
1.51000004877 3.95218393067 0.0
1.90135619383 3.81213273629 0.0
0.669405272842 3.95495208979 0.0
1.07142780558 3.94866325309 0.0
0.592085094025 3.94901139323 0.0
0.831051660929 3.94633985879 0.0
1.14940528892 3.9549521224 0.0
0.44409344258 3.82719938178 0.0
1.49646539728 3.82376850413 0.0
0.683434082651 3.82631713605 0.0
0.92337834777 3.8234861632 0.0
1.16343437877 3.82631615351 0.0
1.90749084149 3.65350700271 0.0
1.8278758005 3.95083911942 0.0
0.37243073327 3.95235211027 0.0
1.29345662549 3.60569899261 0.0
0.813407949226 3.60572380122 0.0
1.29317153636 3.96216077293 0.0
1.367704599 3.96055764734 0.0
1.97071235041 3.96038324024 0.0
0.22928764959 3.96038324024 0.0
2.10610581798 3.66047411138 0.0
0.0938941820177 3.66047411138 0.0
1.67000000105 3.95862953468 0.0
1.74869816704 3.96079301687 0.0
0.531976761939 3.96138655466 0.0
0.451361042387 3.96112774725 0.0
0.771976832233 3.96138887156 0.0
1.88843481911 3.95881554986 0.0
1.61277513709 3.78538823015 0.0
2.13311214501 3.79435403671 0.0
0.0668878549946 3.79435403671 0.0
1.76678797151 3.60286552601 0.0
0.311702446283 3.9611157379 0.0
1.02877762737 3.96159282031 0.0
1.40830122607 3.96143175203 0.0
1.25214210333 3.957355862 0.0
1.59476493393 3.9048774062 0.0
1.56950979124 3.96148017208 0.0
0.890017020275 3.96125792969 0.0
2.03089110475 3.96040268709 0.0
0.169108895255 3.96040268709 0.0
0.939722125942 3.68539157065 0.0
1.41686981874 3.69192854313 0.0
0.0426348006718 3.96101756902 0.0
2.15736519933 3.96101756902 0.0
1.36077308019 3.79177204211 0.0
0.817982383499 3.78962669257 0.0
1.05834720932 3.78780184893 0.0
0.578349529346 3.78781530011 0.0
1.77992711518 3.87652731382 0.0
0.417982153133 3.87594990465 0.0
1.84363633012 3.77741329286 0.0
1.52244994479 3.87704541475 0.0
0.657426528912 3.87734838249 0.0
1.13742651778 3.87734834025 0.0
0.898116026439 3.8800466833 0.0
1.56984259435 3.64465823131 0.0
1.08983016076 3.6446495206 0.0
0.609942357805 3.64483976081 0.0
1.29451769374 3.79627773068 0.0
0.0893439668432 3.96574839433 0.0
2.11065603316 3.96574839433 0.0
2.01422398896 3.86980625824 0.0
0.185776011038 3.86980625824 0.0
0.305957237756 3.87340573745 0.0
1.72977480551 3.68665973332 0.0
1.25418096296 3.69351129461 0.0
0.629999973146 3.96272981435 0.0
1.11000003579 3.96272983221 0.0
0.772975283819 3.69297597031 0.0
1.89089074715 3.86951346173 0.0
0.445448577516 3.69456159386 0.0
1.82621986864 3.89678318705 0.0
2.07135424223 3.81165410377 0.0
0.128645757768 3.81165410377 0.0
0.373320289473 3.89968791662 0.0
1.79000004014 3.96541718891 0.0
0.383302070088 3.78976392323 0.0
0.409457623385 3.96502881851 0.0
1.55531527123 3.78787141386 0.0
1.34861332978 3.89383287415 0.0
0.593245985735 3.89483466551 0.0
0.833245353375 3.89479604398 0.0
1.0732444554 3.8948349405 0.0
0.911896623122 3.59194725763 0.0
0.187580554011 3.70699710313 0.0
2.01241944599 3.70699710313 0.0
1.39201907571 3.59233063354 0.0
2.09635520798 3.90516200201 0.0
0.103644792024 3.90516200201 0.0
1.89086147526 3.72621461413 0.0
1.02102684616 3.70044819701 0.0
1.49813234221 3.70194667869 0.0
0.53965669049 3.70593418829 0.0
1.63719578665 3.69772473547 0.0
0.685447658936 3.70127585046 0.0
1.16541741817 3.70128744764 0.0
0.901649266036 3.76287226775 0.0
0.992351690321 3.90662993531 0.0
1.69131894868 3.90657323657 0.0
1.9699561555 3.91599371502 0.0
0.230043844497 3.91599371502 0.0
1.61980840676 3.85005402918 0.0
2.04685187594 3.90639759008 0.0
0.153148124058 3.90639759008 0.0
0.512139828486 3.90538520837 0.0
1.43057458921 3.90702644399 0.0
0.749149996349 3.90689574876 0.0
[...]
POINT_DATA 1163
VECTORS Displacement float
0.0 0.0 0
0.0 0.0 0
0.00710030493246 -0.00190562100253 0
-0.0120268125317 -0.00320985826202 0
0.0 0.0 0
0.0 0.0 0
0.0 0.0 0
0.0 0.0 0
0.0 0.0 0
0.0 0.0 0
0.0 0.0 0
0.0 0.0 0
0.0 0.0 0
0.0 0.0 0
0.0 0.0 0
0.0 0.0 0
0.0 0.0 0
0.0 0.0 0
0.0 0.0 0
0.0 0.0 0
0.0 0.0 0
0.0 0.0 0
0.0 0.0 0
0.0 0.0 0
0.0 0.0 0
0.0 0.0 0
0.0 0.0 0
0.0 0.0 0
0.0 0.0 0
0.0 0.0 0
0.0 0.0 0
0.0 0.0 0
0.0 0.0 0
0.0 0.0 0
0.0 0.0 0
0.00128388948476 -0.00115498080557 0
0.00235767273854 -0.00165694547394 0
0.00330178805214 -0.00189381324576 0
0.00406107998252 -0.00198897905325 0
0.00467222366951 -0.0020070867879 0
0.00517236384563 -0.00199007693587 0
0.00557575244776 -0.00196713505273 0
0.00592097634149 -0.00194309152117 0
0.00621311825042 -0.00192385684384 0
0.00646989278598 -0.00191302996698 0
0.00669966679446 -0.00190763358957 0
0.00690886645168 -0.00190565372112 0
0.00710028232561 -0.00171574440277 0
0.00709910445787 -0.00152412170966 0
0.00709568661559 -0.00133212157236 0
0.00708917214551 -0.00114094850322 0
0.00707985450894 -0.000952688995985 0
0.00706834460571 -0.000768764394803 0
0.00705379542316 -0.000589978058784 0
0.007038373246 -0.000417954069681 0
0.00702045857145 -0.000253032739757 0
0.00700263259599 -9.58773329463e-05 0
0.0069820866333 5.35107110794e-05 0
0.00696033306028 0.000192612200167 0
0.00693875874402 0.00032214597846 0
0.00691417824856 0.000441727767944 0
0.0068894048229 0.000550432681329 0
0.00685962320926 0.000648215128013 0
0.00682717564265 0.000732712987223 0
0.00678947974825 0.000805234596799 0
0.00674686705487 0.000860878664691 0
0.00669347549488 0.000899677298562 0
0.00663331754922 0.000918595902078 0
0.00656776671751 0.00091387878178 0
0.00648586820394 0.000890769682524 0
0.00639247765411 0.000834558908648 0
0.00627815655845 0.000750423245717 0
0.00615328061184 0.00062677376698 0
0.00599960586391 0.000466015928676 0
0.00582853889732 0.000252315149426 0
0.00562976414086 -1.28814541293e-05 0
0.00541776029627 -0.000339822215908 0
0.00517527180933 -0.000745665835529 0
0.00488716467972 -0.00121392469282 0
0.00458045225815 -0.00177874839763 0
0.00423229138559 -0.00244623995292 0
0.00385575905432 -0.00323186148854 0
0.00343552374378 -0.00414044244383 0
0.00297175735632 -0.00520576501903 0
0.002461719889 -0.00644269004071 0
0.00194656358338 -0.00787333798239 0
0.00136951755962 -0.00952452806523 0
0.000790814154324 -0.0113977357339 0
0.000178229905181 -0.0135439395035 0
-0.000446972757263 -0.0160190837059 0
-0.00116565813295 -0.0188676641717 0
-0.00180926432329 -0.0221193971447 0
-0.0024574484314 -0.0258722125125 0
-0.00302821749569 -0.0301465707196 0
-0.00374378173477 -0.03518557897 0
-0.00433284459822 -0.0405016378564 0
-0.00275999756517 -0.0509851450013 0
-0.000751309291896 -0.0605038546925 0
0.00119426096101 -0.0694959529479 0
0.00292956561666 -0.0781133024597 0
0.00451682236591 -0.0861701943092 0
0.00576683051067 -0.0938445749386 0
0.00683618255962 -0.101042754974 0
0.00764620668731 -0.107823420327 0
0.00810645007826 -0.114205106019 0
0.00837866175802 -0.120115913069 0
0.00840752724433 -0.125558158423 0
0.00816556446151 -0.130538712603 0
0.00773055848719 -0.135024130603 0
0.00706904545064 -0.139021435227 0
0.00622244191795 -0.142507031419 0
0.00521309095571 -0.145467770719 0
0.00404010967816 -0.147902059082 0
0.00275181131346 -0.149793802928 0
0.00136209135822 -0.151137222722 0
-0.000147273268718 -0.151885069229 0
-0.00170956753223 -0.152187299855 0
-0.00345726329017 -0.151872291431 0
-0.00505935098372 -0.150990338335 0
-0.0065069780542 -0.149555144145 0
-0.00785080511079 -0.147568369722 0
-0.00906163361524 -0.145040664634 0
-0.0101083054564 -0.141982135806 0
-0.0109845517863 -0.138401852858 0
-0.011687228689 -0.134310448391 0
-0.0121960651772 -0.129710206119 0
-0.0124374220661 -0.124624607467 0
-0.0125034168949 -0.119129719149 0
-0.01229201566 -0.113128747723 0
-0.0118503058403 -0.10666781896 0
-0.0111431797988 -0.0997477872087 0
-0.0102226625834 -0.092382805138 0
-0.00895429289306 -0.0845881608327 0
-0.00759610305936 -0.0763329405895 0
-0.00595863487478 -0.0674316702519 0
-0.00438367706759 -0.0581322990753 0
-0.00276521059036 -0.048131568533 0
-0.00299071200959 -0.0414198534003 0
-0.00348217921522 -0.0357791589131 0
-0.00412356961523 -0.0310676798941 0
-0.00493522021617 -0.0270521648977 0
-0.00574933065601 -0.0236335301293 0
-0.00651449502033 -0.0206906851048 0
-0.00733660054444 -0.0181613458698 0
-0.00807058270661 -0.0159999713704 0
-0.00880314787984 -0.0141332313514 0
-0.00947597409785 -0.0125612766339 0
-0.0100447636532 -0.0111863126953 0
-0.0105760200767 -0.0100059977779 0
-0.011007618491 -0.00896324816364 0
-0.0113756326693 -0.00805624984682 0
-0.0116457579586 -0.00721553807882 0
-0.0118404672073 -0.00643181264685 0
-0.0119613474488 -0.00566454344017 0
-0.0120168167502 -0.00488097112958 0
-0.0120288218897 -0.00406582479706 0
-0.0129020414454 -0.00320795603218 0
-0.0139069182061 -0.00323324671361 0
-0.0150579991547 -0.00332607652123 0
-0.0163231005617 -0.00352997663833 0
-0.0176222956239 -0.00394420961067 0
-0.0187460126079 -0.00455335979301 0
-0.0196726753769 -0.00533995360484 0
-0.0199219999892 -0.00631228494737 0
-0.0192871621248 -0.00723641493667 0
-0.0173793998094 -0.00793790426193 0
-0.0135384990634 -0.0078097024709 0
-0.00794827271389 -0.00601693939411 0
-0.0223201886513 -0.013473835352 0
0.00485279045332 5.51051237451e-05 0
-0.0230297872358 -0.0439480636081 0
-0.00806919577132 -0.0703550177958 0
0.0119851876855 -0.06255281359 0
0.0201806524128 -0.0300763128593 0
0.0131083308011 -0.00521093190261 0
0.00763003098984 0.000119311374289 0
-0.0184215564757 -0.0081930298181 0
0.00588393354441 -0.000662878420131 0
0.00643441969496 0.000695510528106 0
0.00907341807823 -0.00107176881446 0
-0.0238586087575 -0.0337966807368 0
-0.0177510953607 -0.0830804752848 0
0.0152615035994 -0.0166197813675 0
0.00196280580322 -0.0977112175624 0
0.0183821956169 -0.065804143703 0
-0.0193866460025 -0.0163849649809 0
0.00615017949354 0.000232991224226 0
0.00698315989155 0.000847940050797 0
-0.0223807850742 -0.0628319482359 0
0.0089002174984 -0.00417363501735 0
-0.0101405909851 -0.11020207737 0
0.0168788271241 -0.0498062758186 0
0.0101044482235 -0.102942811582 0
0.00707259167096 0.000405285364286 0
-0.0187355006979 -0.0900062223862 0
0.00859336473605 -0.0105241027056 0
-0.00291745770352 -0.122594646326 0
0.0116623994974 -0.0276940433116 0
0.013580968628 -0.0954074043986 0
0.00517062964446 0.000157643692471 0
0.00654217160382 0.000685029676888 0
-0.0152315724437 -0.00605877470586 0
0.00644616399152 -0.00122071514442 0
0.00436976061845 -0.000664413759818 0
-0.0203067456004 -0.00711677787352 0
-0.017409265653 -0.0284561857798 0
0.00643077668523 -0.000167371335151 0
-0.0153645712927 -0.011457352975 0
0.00985842823512 -0.00161963557138 0
0.0171509129753 -0.013174012944 0
0.00246970330714 -0.0577085970579 0
0.0176781306715 -0.0404665089668 0
-0.0158716569448 -0.050305504152 0
0.00720534327533 -0.00132778524832 0
-0.0147992146137 -0.108901085757 0
0.00379513748705 -0.122039278923 0
0.0148126710517 -0.0760065206955 0
0.00669591799026 0.00092053830398 0
-0.0232067669874 -0.0234337626327 0
-0.0188940899603 -0.0498939100765 0
0.00761535487724 -0.0171744347691 0
-0.0144639709506 -0.00827457688843 0
0.00654719264523 -0.000671572222583 0
0.00657344108467 0.000388843518926 0
-0.0144132951683 -0.0189587131779 0
0.0130109769273 -0.00846953147031 0
-0.0045620063108 -0.0950399840524 0
0.018421796784 -0.029794374465 0
0.0148680060735 -0.0784793617253 0
-0.0222130287204 -0.0669965227228 0
-0.0153150405973 -0.005967507121 0
0.00256865715619 -0.000228734357001 0
0.00911614610125 -0.0247548693697 0
0.00886396399336 -0.00296382090472 0
-0.0148081738597 -0.0228385350408 0
-0.0062156317471 -0.0283435006457 0
0.00573984218649 -0.000542470952117 0
0.013653501949 -0.0153048818514 0
0.00669614671986 0.000845099191069 0
-0.0177675861304 -0.0786064583279 0
0.0063449038008 -0.00558914808564 0
-0.00760300122284 -0.128829902972 0
0.0105866973037 -0.044774758026 0
0.00765898957262 -0.122567670402 0
0.00542703007554 -0.000182348517361 0
-0.0210285394816 -0.0109883601355 0
0.00790844310359 0.000312935400707 0
0.00691485606422 0.000611815067659 0
0.00653285075192 -4.18537504949e-05 0
0.0105190969193 -0.113533902109 0
-0.0183632160694 -0.00594212298571 0
0.00579218191896 -0.00132566237331 0
-0.0233644132062 -0.020780282832 0
-0.0190623899028 -0.0121485234001 0
-0.0143470348742 -0.0124766323453 0
0.00609241584561 -0.00264711146323 0
0.00580552732146 0.000375854904975 0
-0.0116540812313 -0.125163456236 0
0.0124037569743 -0.0925846502868 0
-0.0155602590838 -0.108336548831 0
0.000592848219271 -0.131870116823 0
0.0108664562434 -0.0681540839952 0
-0.0247962989461 -0.0470406218105 0
0.0111109951768 -0.00343984862749 0
-0.0121831499568 -0.0860285322053 0
0.00884474004518 -0.0850150992131 0
0.0202217897831 -0.0459955981732 0
0.00356644632149 -2.00977708188e-05 0
0.00666813498032 0.000856352611015 0
-0.0142510697317 -0.0390153218752 0
0.0119576327205 -0.00857642699081 0
-0.000156390649199 -0.0259385650366 0
0.00463752937387 -0.0232030025976 0
0.00474803447681 -0.0124608299655 0
0.00669942730576 0.000127247432391 0
-0.0122677576539 -0.0146398174699 0
0.00298630413609 -0.000753470040578 0
-0.0164736417993 -0.00526161288671 0
0.00650413709226 0.000619039954844 0
0.00662867252779 0.000939321630547 0
-0.0158620753708 -0.0953871352692 0
-0.0152100334024 -0.0677111539597 0
-0.00419687135109 -0.137296253501 0
0.00668639231427 0.000619469539704 0
0.00905877289787 -0.000553276276838 0
0.00502083220384 -0.00123774961274 0
-0.0202050868633 -0.00633875751012 0
0.00357417578687 -0.000228379174497 0
-0.0116514258377 -0.0252655342932 0
0.010983865867 -0.107504324558 0
0.00491073946563 -0.00856326087775 0
0.00641475125505 -0.0320641015587 0
0.00755946370656 -0.000342132291115 0
0.00605819704937 -0.000852773073014 0
0.0049567955791 -0.133115943936 0
0.00670797506973 -0.000334241182342 0
-0.0129509779801 -0.0102674765468 0
0.00868522132747 -0.0444918302584 0
0.0137109240209 -0.0064493564178 0
-0.013732549651 -0.00498343116814 0
0.00673255206801 -0.00149824090167 0
0.0161496252765 -0.0123368832755 0
-0.000201269249993 -0.0795229839828 0
0.0176454421718 -0.0583892073131 0
-0.0195455362665 -0.0630544074439 0
0.00677947907013 0.000845822037939 0
-0.0233889115931 -0.0470404612501 0
0.00589952764326 0.000439801629842 0
0.00902854384717 -0.00229717747217 0
-0.0139893600006 -0.0988041145482 0
0.0183258425329 -0.0598731808722 0
0.00641300328685 -0.105037729823 0
0.00803602861966 -0.00154967756623 0
0.0138874964465 -0.0255413890295 0
-0.0123462926322 -0.0313363250922 0
0.0183266438478 -0.0200854850944 0
-0.0133330341717 -0.00671132629284 0
0.00677016596228 -0.00104861177823 0
0.00595588781327 -0.000213273859443 0
-0.0188636658108 -0.0109800530324 0
-0.0209857799178 -0.02343772942 0
0.00608062160588 -7.2150519043e-05 0
0.0179093935518 -0.0181401302497 0
-0.0134693477681 -0.120604619611 0
0.010646766687 -0.0833446139438 0
-0.00345573520546 -0.0501450207994 0
0.00626129581765 0.000535632624205 0
-0.0212570150367 -0.0279098380362 0
0.00659007656005 0.00081365320675 0
0.00526801145542 -0.000673063150438 0
-0.0203135677516 -0.00788643053256 0
-0.0209325107852 -0.03758030021 0
0.0066642782032 0.000933070081754 0
-0.0249234925415 -0.0314204871935 0
-0.0132512170017 -0.0516561198657 0
0.0102567120106 -0.00168995765281 0
0.0115270738792 -0.0146890384256 0
-0.0177791233803 -0.0935853504587 0
0.000900053952143 -0.113829200435 0
0.0160970066301 -0.079779186827 0
0.00435915354166 -0.0214051892643 0
-0.0198858489861 -0.00833862103463 0
0.00396035772052 -0.000263232948742 0
0.00910162803261 -0.00438453106603 0
0.00621920926528 -0.00090990166285 0
-0.0165342596936 -0.00719804173864 0
0.00490888519796 0.000173902917198 0
0.0139654834347 -0.042629954756 0
0.0114490655842 -0.00337533546657 0
-0.0189765710395 -0.0397833323285 0
0.00792259989919 -0.000650316479509 0
-0.0101516505354 -0.0497035057231 0
0.0184786380015 -0.0281727257058 0
0.00701744210769 -0.0683355420124 0
0.0122424445361 -0.10034418056 0
0.00706149756796 0.00071273032898 0
0.00639069239173 0.00012417126199 0
-0.0162600930006 -0.0145745520496 0
0.00833346052197 -0.000138495080583 0
0.00625036685695 -0.000469500800488 0
-0.0165496525192 -0.00928403995929 0
-0.0206733039677 -0.0773038889306 0
0.00890626388302 -0.00684592569884 0
-0.00635665432607 -0.117059419486 0
0.0142991262594 -0.0378501462637 0
0.00407836619609 -0.00119601154225 0
-0.0195913254273 -0.0062687780119 0
0.00864562691063 -0.124944602828 0
-0.0166789140135 -0.00513911225389 0
0.0061650420212 -0.00152028257042 0
0.00514872637393 -0.00408266640413 0
-0.00937772608449 -0.133650163587 0
0.00775194587696 -0.0568831178025 0
-0.0217429598035 -0.0152655042209 0
-0.0234891903494 -0.0193512614887 0
0.0154410386581 -0.0237766933199 0
0.00571413586372 0.000150701168547 0
0.00403679813561 -0.0171768818837 0
0.00642499607347 0.000338320078069 0
0.0196672824274 -0.0470894666222 0
-0.0153284765138 -0.0676896657192 0
0.00713023432406 -0.00381114358714 0
-0.0102204853654 -0.120795415208 0
0.0136611036301 -0.0549520981407 0
0.00628471245376 0.000298209740352 0
0.00458899422195 -0.0805501781768 0
0.00238297065156 -0.000100546739507 0
0.00672084401509 0.000391468328412 0
-0.0113582418971 -0.0190642443528 0
-0.015142200296 -0.104803351212 0
-0.00205902927669 -0.139812170344 0
0.00576053597701 -0.00159780191406 0
0.00291899613554 -0.137018796684 0
0.0067160229543 0.000734147621639 0
0.0067601807853 -0.000671184450887 0
-0.0130205301895 -0.00835097870145 0
-0.0105071422571 -0.0302871467053 0
0.00728766854915 0.000649512321422 0
0.0067581618056 -7.41241742779e-05 0
-0.0119632596756 -0.0124412778082 0
-0.0238217051808 -0.0582522381298 0
0.0114282434498 -0.00526508161145 0
-0.00884805194786 -0.0950493514206 0
0.0196518781112 -0.040171827784 0
0.0116828105524 -0.0873198780097 0
0.00197563635719 -0.000134322181951 0
-0.0106634920928 -0.00511952037842 0
0.00680021554065 0.000918788712939 0
0.0100127105589 -0.112482771021 0
-0.020585857859 -0.0610173977765 0
0.0115927130029 -0.0208170085509 0
-0.00216131482457 -0.106191262122 0
0.0156404405702 -0.0819277230253 0
-0.0202923682618 -0.0801949038542 0
-0.00916633970343 -0.00303870300645 0
0.00144104564819 -0.000297670209174 0
-0.0110756544233 -0.00717517169334 0
0.00643066439897 0.00051907538463 0
-0.0182401099567 -0.0224934426624 0
0.0117292593288 -0.0032632663247 0
0.0121854201929 -0.0108810533179 0
0.00682692615709 -0.114599499413 0
-0.023874026078 -0.033711915385 0
0.00755537440876 -0.00234006339245 0
-0.012777756206 -0.112248282794 0
0.0155052584948 -0.0640656813598 0
0.0055399872712 -0.000941066972443 0
-0.0194371866391 -0.00707601830219 0
0.00651434235868 0.000835515801932 0
0.00688429490547 -0.000682869374586 0
0.00483255177721 -0.000355475120506 0
-0.0210980642312 -0.00907000911912 0
-0.0147252405372 -0.0833019627191 0
0.00495100260387 -0.00537555685162 0
-0.00770677081512 -0.136062110457 0
0.00742219029229 -0.12983044454 0
0.0068200120855 -0.0470310640715 0
0.0190498987727 -0.0208555951665 0
0.00757411180221 0.000446348684111 0
0.00533299772327 -0.00153170366407 0
-0.0195904633487 -0.00577121466814 0
0.0151991910492 -0.00864825194569 0
0.00353259723587 -0.000698882641506 0
0.00644368697935 0.000592805189167 0
0.00797383576677 -0.00936157929202 0
0.0146965433383 -0.00961879313016 0
-0.00524590572351 -0.0134071667135 0
0.00270635811518 -0.0408132102542 0
-0.0195274313573 -0.0105784487051 0
-0.0029796098274 -0.0652120807128 0
-0.0243269519508 -0.0269246826926 0
0.00828626443709 -0.000979926349735 0
-0.0103172419917 -0.0111270856606 0
-0.0100398075774 -0.00403133977232 0
0.00162355631683 -0.000754493848869 0
0.00680521574997 -0.00128672253025 0
-0.0132924525334 -0.00580145544792 0
0.00643337898186 0.000676442812176 0
0.00956783588985 -0.00803444326614 0
-0.00241649501122 -0.0180643177346 0
-0.0152601315623 -0.00463337445766 0
0.00643997755456 -0.00161435564886 0
-0.00893631175404 -0.0141009759748 0
0.00385312842452 -3.58678338327e-05 0
-0.0198404138702 -0.0171017710288 0
0.00781029409536 -0.0149483565677 0
0.00578626519118 -0.00166745971709 0
-0.022245953864 -0.0549040112572 0
-0.0212640120233 -0.0282653527948 0
0.0139558029868 -0.0070804154729 0
0.0148143069496 -0.0650751284166 0
0.00596149604842 -0.000120881882198 0
0.00941521297497 -0.120923992912 0
0.00888250557783 -0.0137747985654 0
0.00564749931243 -0.000413833252164 0
-0.0198257016533 -0.00940655824839 0
0.0029971637956 -0.000321904557167 0
0.019821729517 -0.0261718516256 0
0.00993386655726 -0.105888247573 0
-0.00521267843256 -0.0767891063098 0
-0.00127997966842 -0.0953212590619 0
0.0166359978114 -0.0740501260958 0
-0.0204571499913 -0.0751087156167 0
0.0143289814451 -0.0118299963864 0
0.00313760653612 -0.0101408063424 0
0.00197719486293 -0.0279669526965 0
0.00390194854151 -7.64223523312e-06 0
0.00649092759437 -0.000942078956813 0
-0.0149167398766 -0.00708029571352 0
-0.0138795601269 -0.118343775745 0
-0.0120312634556 -0.128409658862 0
0.0102406157353 -0.0925744736475 0
0.00855611720081 -0.0765337331193 0
-0.018973931872 -0.00646884890372 0
0.00369951723647 -0.000566738947263 0
0.00762412440483 0.000396126052042 0
0.00620717487083 -0.00120816010454 0
-0.0165268384758 -0.00615233489182 0
0.00611175216172 0.000528137356395 0
0.00481979463202 -0.00273551368711 0
0.000520335783249 -0.145222145197 0
-0.0119690154259 -0.0718928164465 0
0.0204978429442 -0.0395714901897 0
0.00668980899355 0.000892901799636 0
0.0167184098348 -0.0296152459113 0
-0.0105461967229 -0.0435506483213 0
-0.0132222823669 -0.00435515694063 0
0.00684010652899 -0.00164976500528 0
0.00367731052901 -0.111216196246 0
0.0171769503232 -0.0704517894936 0
-0.0159450316584 -0.0981797972855 0
-0.0200135805284 -0.013553199147 0
0.00547341786544 0.000318067643563 0
0.00598232781853 1.80356061189e-05 0
0.00648524247998 -0.000451255095835 0
-0.0148467300969 -0.00943185486152 0
0.00660832681661 0.000793410172353 0
0.00662244455675 0.000939690318749 0
-0.0114549581755 -0.0608107777927 0
0.00824814594772 1.51072591914e-05 0
0.0099497781971 -0.00209065582427 0
-0.0152301722255 -0.0850030843532 0
0.00597098090645 -0.0907552848023 0
0.0195815999873 -0.0559361520529 0
-0.0246863139719 -0.0406766014469 0
0.0131813048887 -0.0896956668045 0
-0.0241041518675 -0.0503519594428 0
0.0111191665398 -0.00693274221846 0
-0.0224615019365 -0.0690707179343 0
-0.00639272028249 -0.104686730497 0
0.00623451102419 -5.22272935004e-05 0
0.0125739294577 -0.00519518923942 0
-0.0173520177259 -0.0123683156392 0
-0.00895378181368 -0.0813132103932 0
0.0116886765313 -0.0750355631712 0
0.0204303194032 -0.0356681665939 0
0.00713051688568 6.55368621775e-05 0
0.00763975069965 0.000176694755029 0
-0.017476749887 -0.0978423164599 0
-0.000696181631191 -0.124414073681 0
0.0142407537279 -0.0893869038834 0
0.00253259695111 -0.0146258702153 0
0.00202240153297 -0.0201749588169 0
0.010096888458 -0.00361580038854 0
-0.0115373247939 -0.0984415802324 0
0.0190389513275 -0.0497470130851 0
0.00923159259288 -0.0968501667589 0
0.00681569037765 0.000271997840156 0
-0.00999799220548 -0.0169252305731 0
-0.0171370958862 -0.0341764685084 0
0.00831367051826 -0.000314702114323 0
0.00702568324597 -0.0074083134911 0
0.0106395910326 -0.0362910619169 0
0.00699396775736 0.000799444899101 0
0.00678889979732 0.000501000524297 0
-0.0106963661484 -0.132089537108 0
0.00779256743664 -0.0664169430592 0
0.00526419952447 -3.18736078975e-06 0
-0.0220091531285 -0.0127648040056 0
0.0158168312662 -0.0526049673855 0
-0.0178760683773 -0.00516347911936 0
0.00589475915376 -0.00157895105573 0
-0.022895462846 -0.0277657416694 0
-0.0198803956724 -0.0510602546211 0
-0.0092055084435 -0.0217713133631 0
-0.0239293112659 -0.0538645952291 0
0.00637513631395 0.000291709191023 0
-0.0171473462248 -0.0171880349742 0
0.00727571388224 0.00066458663374 0
-0.00858317674136 -0.0031964675977 0
0.00135546496959 -0.000153237197593 0
-0.0213444041887 -0.018545230278 0
0.00538922391372 -0.0148485097697 0
0.00632908869188 -0.00231436900655 0