# vtk DataFile Version 2.0
Generated with Solid Solver
ASCII
DATASET UNSTRUCTURED_GRID
POINTS 1163 float 
0.0 3.5 0.0
2.2 3.5 0.0
2.2 4.0 0.0
0.0 4.0 0.0
0.0687499999999 3.5 0.0
0.1375 3.5 0.0
0.20625 3.5 0.0
0.275 3.5 0.0
0.343749999999 3.5 0.0
0.412499999999 3.5 0.0
0.481249999999 3.5 0.0
0.549999999999 3.5 0.0
0.618749999998 3.5 0.0
0.687499999998 3.5 0.0
0.756249999998 3.5 0.0
0.824999999998 3.5 0.0
0.893749999998 3.5 0.0
0.962499999997 3.5 0.0
1.03125 3.5 0.0
1.1 3.5 0.0
1.16875 3.5 0.0
1.2375 3.5 0.0
1.30625 3.5 0.0
1.375 3.5 0.0
1.44375 3.5 0.0
1.5125 3.5 0.0
1.58125 3.5 0.0
1.65 3.5 0.0
1.71875 3.5 0.0
1.7875 3.5 0.0
1.85625 3.5 0.0
1.925 3.5 0.0
1.99375 3.5 0.0
2.0625 3.5 0.0
2.13125 3.5 0.0
2.2 3.56430812579 0.0
2.2 3.6227083524 0.0
2.2 3.67574343203 0.0
2.2 3.72390623714 0.0
2.2 3.76764438299 0.0
2.2 3.80736436348 0.0
2.2 3.84343531161 0.0
2.2 3.87619247056 0.0
2.2 3.90594026646 0.0
2.2 3.93295517223 0.0
2.2 3.9574882542 0.0
2.2 3.97976750927 0.0
2.18000003888 4.0 0.0
2.15999995974 4.0 0.0
2.13999995594 4.0 0.0
2.12000003893 4.0 0.0
2.0999999813 4.0 0.0
2.07999993507 4.0 0.0
2.06000001965 4.0 0.0
2.04000002354 4.0 0.0
2.01999993997 4.0 0.0
1.99999999426 4.0 0.0
1.98000004623 4.0 0.0
1.95999996625 4.0 0.0
1.93999996787 4.0 0.0
1.92000005069 4.0 0.0
1.90000001292 4.0 0.0
1.87999994967 4.0 0.0
1.86000003245 4.0 0.0
1.84000003166 4.0 0.0
1.81999995194 4.0 0.0
1.80000002065 4.0 0.0
1.78000005962 4.0 0.0
1.75999997703 4.0 0.0
1.73999998149 4.0 0.0
1.72000006236 4.0 0.0
1.70000000651 4.0 0.0
1.67999995967 4.0 0.0
1.66000004242 4.0 0.0
1.64000004304 4.0 0.0
1.61999996152 4.0 0.0
1.6000000096 4.0 0.0
1.58000006667 4.0 0.0
1.55999998704 4.0 0.0
1.53999998381 4.0 0.0
1.52000006764 4.0 0.0
1.5000000299 4.0 0.0
1.47999996242 4.0 0.0
1.46000004337 4.0 0.0
1.4400000454 4.0 0.0
1.41999996386 4.0 0.0
1.40000002834 4.0 0.0
1.38000006734 4.0 0.0
1.35999998576 4.0 0.0
1.33999998537 4.0 0.0
1.32000006658 4.0 0.0
1.30000001585 4.0 0.0
1.27999996279 4.0 0.0
1.26000004759 4.0 0.0
1.24000004493 4.0 0.0
1.2199999616 4.0 0.0
1.20000000906 4.0 0.0
1.18000006792 4.0 0.0
1.15999998616 4.0 0.0
1.13999999119 4.0 0.0
1.12000007157 4.0 0.0
1.1 4.0 0.0
1.07999992843 4.0 0.0
1.06000000881 4.0 0.0
1.04000001384 4.0 0.0
1.01999993209 4.0 0.0
0.999999990948 4.0 0.0
0.98000003841 4.0 0.0
0.959999955072 4.0 0.0
0.939999952416 4.0 0.0
0.920000037214 4.0 0.0
0.899999984154 4.0 0.0
0.879999933427 4.0 0.0
0.860000014636 4.0 0.0
0.840000014246 4.0 0.0
0.819999932662 4.0 0.0
0.79999997166 4.0 0.0
0.780000036145 4.0 0.0
0.759999954604 4.0 0.0
0.73999995663 4.0 0.0
0.72000003758 4.0 0.0
0.699999970103 4.0 0.0
0.679999932361 4.0 0.0
0.660000016189 4.0 0.0
0.640000012962 4.0 0.0
0.61999993333 4.0 0.0
0.599999990406 4.0 0.0
0.58000003848 4.0 0.0
0.559999956964 4.0 0.0
0.539999957581 4.0 0.0
0.520000040329 4.0 0.0
0.499999993489 4.0 0.0
0.479999937647 4.0 0.0
0.460000018512 4.0 0.0
0.440000022972 4.0 0.0
0.419999940378 4.0 0.0
0.399999979352 4.0 0.0
0.380000048063 4.0 0.0
0.359999968347 4.0 0.0
0.339999967553 4.0 0.0
0.320000050328 4.0 0.0
0.299999987077 4.0 0.0
0.279999949312 4.0 0.0
0.260000032129 4.0 0.0
0.240000033752 4.0 0.0
0.219999953776 4.0 0.0
0.200000005737 4.0 0.0
0.180000060031 4.0 0.0
0.159999976465 4.0 0.0
0.139999980354 4.0 0.0
0.120000064926 4.0 0.0
0.100000018697 4.0 0.0
0.0799999610675 4.0 0.0
0.0600000440571 4.0 0.0
0.0400000402596 4.0 0.0
0.0199999611169 4.0 0.0
0.0 3.97976750927 0.0
0.0 3.9574882542 0.0
0.0 3.93295517223 0.0
0.0 3.90594026646 0.0
0.0 3.87619247056 0.0
0.0 3.84343531161 0.0
0.0 3.80736436348 0.0
0.0 3.76764438299 0.0
0.0 3.72390623714 0.0
0.0 3.67574343203 0.0
0.0 3.6227083524 0.0
0.0 3.56430812579 0.0
0.249757963562 3.75212589829 0.0
1.94999996706 3.74954522137 0.0
0.488710285893 3.75947702441 0.0
0.726520490699 3.7655965719 0.0
0.967283134849 3.7597072979 0.0
1.20619032017 3.75831098673 0.0
1.45842774915 3.76733088374 0.0
1.69012076678 3.7622332834 0.0
0.130754044069 3.86878249167 0.0
2.06924595593 3.86878249167 0.0
1.8299999918 3.84622455633 0.0
1.56816462369 3.85034872999 0.0
0.369913859351 3.84868157925 0.0
0.608733620231 3.84706187144 0.0
1.33069778866 3.84790908234 0.0
0.84323446252 3.84762979148 0.0
1.08873170817 3.84705870913 0.0
0.250539365135 3.87785524304 0.0
1.94967747948 3.87849609822 0.0
1.73218750075 3.8916046151 0.0
0.468661874066 3.89189322974 0.0
1.47574192429 3.89639134117 0.0
0.704258110321 3.8963912684 0.0
1.18331258449 3.8976320365 0.0
0.949999953744 3.89208018478 0.0
1.64795374468 3.91749779939 0.0
0.548928463645 3.91905583847 0.0
1.38619509199 3.91928594438 0.0
0.788926872841 3.91906062101 0.0
1.27071160784 3.91777932845 0.0
1.02999997296 3.91685174433 0.0
1.81733541416 3.69950870754 0.0
1.86999999106 3.91823503401 0.0
0.071252620538 3.93011431841 0.0
2.12874737946 3.93011431841 0.0
2.07400690796 3.74293885365 0.0
0.125993092043 3.74293885365 0.0
0.32995676804 3.92118147353 0.0
2.00999996712 3.92542383197 0.0
0.190000032884 3.92542383197 0.0
1.56698738743 3.72218882919 0.0
1.33000000474 3.72531695685 0.0
0.848014510843 3.71986098938 0.0
1.09024665585 3.72285801424 0.0
0.610276609989 3.72290563624 0.0
1.54999998543 3.92414142844 0.0
0.629999973146 3.92414137652 0.0
0.869999974031 3.92414141814 0.0
1.11000003579 3.92414141267 0.0
1.79030638642 3.92649353654 0.0
0.370434802927 3.72513294336 0.0
0.410903135411 3.92892991244 0.0
1.33000002597 3.93737911571 0.0
0.129927648482 3.94112154503 0.0
2.07007235152 3.94112154503 0.0
1.93000000928 3.93875927586 0.0
0.26999999072 3.93875927586 0.0
1.40966706061 3.83880068991 0.0
0.770332962441 3.83880062149 0.0
1.24904900022 3.84293377683 0.0
1.01033287484 3.83880060723 0.0
0.530342681434 3.83880307444 0.0
0.189895273961 3.63486992823 0.0
2.00989835291 3.62845703161 0.0
0.998888153878 3.61665036233 0.0
1.47894673873 3.61675180774 0.0
0.51733910646 3.62937665489 0.0
0.705112628302 3.618743723 0.0
1.66672137035 3.63168728155 0.0
1.18508242495 3.61871739348 0.0
1.71000003443 3.94408608591 0.0
0.489999965568 3.94463856597 0.0
1.44983363802 3.94422347836 0.0
0.729999997105 3.94465012565 0.0
1.21016639734 3.94422345842 0.0
0.928621800545 3.94440037102 0.0
2.00626203014 3.81543543551 0.0
0.193627962274 3.81528928332 0.0
1.66628164144 3.83559795895 0.0
1.75661718781 3.81065958113 0.0
1.61143779865 3.94859227761 0.0
0.991673865748 3.95161238438 0.0
0.0604617941233 3.86281264864 0.0
2.13953820588 3.86281264865 0.0
0.300965570716 3.8114148258 0.0
0.2970894797 3.66361086085 0.0
0.398842167194 3.60449226805 0.0
1.51000004877 3.95218393067 0.0
1.90135619383 3.81213273629 0.0
0.669405272842 3.95495208979 0.0
1.07142780558 3.94866325309 0.0
0.592085094025 3.94901139323 0.0
0.831051660929 3.94633985879 0.0
1.14940528892 3.9549521224 0.0
0.44409344258 3.82719938178 0.0
1.49646539728 3.82376850413 0.0
0.683434082651 3.82631713605 0.0
0.92337834777 3.8234861632 0.0
1.16343437877 3.82631615351 0.0
1.90749084149 3.65350700271 0.0
1.8278758005 3.95083911942 0.0
0.37243073327 3.95235211027 0.0
1.29345662549 3.60569899261 0.0
0.813407949226 3.60572380122 0.0
1.29317153636 3.96216077293 0.0
1.367704599 3.96055764734 0.0
1.97071235041 3.96038324024 0.0
0.22928764959 3.96038324024 0.0
2.10610581798 3.66047411138 0.0
0.0938941820177 3.66047411138 0.0
1.67000000105 3.95862953468 0.0
1.74869816704 3.96079301687 0.0
0.531976761939 3.96138655466 0.0
0.451361042387 3.96112774725 0.0
0.771976832233 3.96138887156 0.0
1.88843481911 3.95881554986 0.0
1.61277513709 3.78538823015 0.0
2.13311214501 3.79435403671 0.0
0.0668878549946 3.79435403671 0.0
1.76678797151 3.60286552601 0.0
0.311702446283 3.9611157379 0.0
1.02877762737 3.96159282031 0.0
1.40830122607 3.96143175203 0.0
1.25214210333 3.957355862 0.0
1.59476493393 3.9048774062 0.0
1.56950979124 3.96148017208 0.0
0.890017020275 3.96125792969 0.0
2.03089110475 3.96040268709 0.0
0.169108895255 3.96040268709 0.0
0.939722125942 3.68539157065 0.0
1.41686981874 3.69192854313 0.0
0.0426348006718 3.96101756902 0.0
2.15736519933 3.96101756902 0.0
1.36077308019 3.79177204211 0.0
0.817982383499 3.78962669257 0.0
1.05834720932 3.78780184893 0.0
0.578349529346 3.78781530011 0.0
1.77992711518 3.87652731382 0.0
0.417982153133 3.87594990465 0.0
1.84363633012 3.77741329286 0.0
1.52244994479 3.87704541475 0.0
0.657426528912 3.87734838249 0.0
1.13742651778 3.87734834025 0.0
0.898116026439 3.8800466833 0.0
1.56984259435 3.64465823131 0.0
1.08983016076 3.6446495206 0.0
0.609942357805 3.64483976081 0.0
1.29451769374 3.79627773068 0.0
0.0893439668432 3.96574839433 0.0
2.11065603316 3.96574839433 0.0
2.01422398896 3.86980625824 0.0
0.185776011038 3.86980625824 0.0
0.305957237756 3.87340573745 0.0
1.72977480551 3.68665973332 0.0
1.25418096296 3.69351129461 0.0
0.629999973146 3.96272981435 0.0
1.11000003579 3.96272983221 0.0
0.772975283819 3.69297597031 0.0
1.89089074715 3.86951346173 0.0
0.445448577516 3.69456159386 0.0
1.82621986864 3.89678318705 0.0
2.07135424223 3.81165410377 0.0
0.128645757768 3.81165410377 0.0
0.373320289473 3.89968791662 0.0
1.79000004014 3.96541718891 0.0
0.383302070088 3.78976392323 0.0
0.409457623385 3.96502881851 0.0
1.55531527123 3.78787141386 0.0
1.34861332978 3.89383287415 0.0
0.593245985735 3.89483466551 0.0
0.833245353375 3.89479604398 0.0
1.0732444554 3.8948349405 0.0
0.911896623122 3.59194725763 0.0
0.187580554011 3.70699710313 0.0
2.01241944599 3.70699710313 0.0
1.39201907571 3.59233063354 0.0
2.09635520798 3.90516200201 0.0
0.103644792024 3.90516200201 0.0
1.89086147526 3.72621461413 0.0
1.02102684616 3.70044819701 0.0
1.49813234221 3.70194667869 0.0
0.53965669049 3.70593418829 0.0
1.63719578665 3.69772473547 0.0
0.685447658936 3.70127585046 0.0
1.16541741817 3.70128744764 0.0
0.901649266036 3.76287226775 0.0
0.992351690321 3.90662993531 0.0
1.69131894868 3.90657323657 0.0
1.9699561555 3.91599371502 0.0
0.230043844497 3.91599371502 0.0
1.61980840676 3.85005402918 0.0
2.04685187594 3.90639759008 0.0
0.153148124058 3.90639759008 0.0
0.512139828486 3.90538520837 0.0
1.43057458921 3.90702644399 0.0
0.749149996349 3.90689574876 0.0
[...]
POINT_DATA 1163
VECTORS Displacement float
0.0 0.0 0
0.0 0.0 0
0.000134356165788 -3.56203329766e-05 0
-2.71645515347e-05 0.000194444627218 0
0.0 0.0 0
0.0 0.0 0
0.0 0.0 0
0.0 0.0 0
0.0 0.0 0
0.0 0.0 0
0.0 0.0 0
0.0 0.0 0
0.0 0.0 0
0.0 0.0 0
0.0 0.0 0
0.0 0.0 0
0.0 0.0 0
0.0 0.0 0
0.0 0.0 0
0.0 0.0 0
0.0 0.0 0
0.0 0.0 0
0.0 0.0 0
0.0 0.0 0
0.0 0.0 0
0.0 0.0 0
0.0 0.0 0
0.0 0.0 0
0.0 0.0 0
0.0 0.0 0
0.0 0.0 0
0.0 0.0 0
0.0 0.0 0
0.0 0.0 0
0.0 0.0 0
2.00689767621e-05 -1.88698424287e-05 0
3.76878761167e-05 -2.76581629928e-05 0
5.39900559266e-05 -3.22957143275e-05 0
6.79665284236e-05 -3.46637173453e-05 0
7.98588589316e-05 -3.56309497475e-05 0
9.0129018786e-05 -3.59247967176e-05 0
9.89135678984e-05 -3.59753888025e-05 0
0.000106657317427 -3.58892218494e-05 0
0.00011345179911 -3.57737434058e-05 0
0.000119511087966 -3.56907386527e-05 0
0.000124950757308 -3.56442039707e-05 0
0.000129877016573 -3.56220414361e-05 0
0.000134354583539 -3.11861359707e-05 0
0.000134339692741 -2.67431148319e-05 0
0.000134308393628 -2.231119081e-05 0
0.00013425745269 -1.79036844062e-05 0
0.000134196968556 -1.35397735463e-05 0
0.000134138392348 -9.22225759641e-06 0
0.000134078294924 -4.95890860635e-06 0
0.000134034853933 -7.41230701569e-07 0
0.000133996750697 3.4283446345e-06 0
0.000133973958503 7.56545927157e-06 0
0.000133946201382 1.16727495034e-05 0
0.000133914753922 1.5753374942e-05 0
0.000133868479068 1.98116441317e-05 0
0.000133783563902 2.38768553266e-05 0
0.000133638278476 2.79262946135e-05 0
0.000133388825324 3.1992960929e-05 0
0.000133051588597 3.60504361549e-05 0
0.000132502249717 4.0132996328e-05 0
0.000131778831166 4.41736226035e-05 0
0.000130756672182 4.81892159311e-05 0
0.000129392833284 5.2148615786e-05 0
0.000127720603185 5.59205074088e-05 0
0.000125552365951 5.97665176432e-05 0
0.000122861684289 6.32434333272e-05 0
0.000119484309027 6.66932175801e-05 0
0.000115426901332 6.96540859628e-05 0
0.00011035921195 7.23874689873e-05 0
0.000104582149776 7.44283361968e-05 0
9.75597604961e-05 7.58673060406e-05 0
8.95248232472e-05 7.64340290062e-05 0
8.01002273529e-05 7.58403143462e-05 0
6.90466445485e-05 7.46465637378e-05 0
5.65304860337e-05 7.16867422753e-05 0
4.20097229085e-05 6.70739419493e-05 0
2.56158102385e-05 6.0317490846e-05 0
6.8509195666e-06 5.14064683529e-05 0
-1.44861775297e-05 3.93087425434e-05 0
-3.85254996631e-05 2.43062875393e-05 0
-6.46551282605e-05 5.09625343235e-06 0
-9.44213149655e-05 -1.78983483822e-05 0
-0.000126676270594 -4.6262416574e-05 0
-0.000162408668387 -7.98699907321e-05 0
-0.00020161247795 -0.000120478587937 0
-0.000246253186326 -0.000167395212944 0
-0.000293261562096 -0.000223214271349 0
-0.000344948298884 -0.000288906256682 0
-0.000399951387619 -0.000366356945248 0
-0.000460412317593 -0.00045332028382 0
-0.000523899105845 -0.000555374388439 0
-0.000594500957854 -0.000671100993683 0
-0.000668984431926 -0.000805260635429 0
-0.000748627479544 -0.000959891540875 0
-0.000833729305496 -0.00113631206581 0
-0.000923713016134 -0.00133664707924 0
-0.00101497578304 -0.00156545949767 0
-0.00111715410655 -0.00182708171523 0
-0.00122321603142 -0.00212884753595 0
-0.00132361002659 -0.0024765166764 0
-0.00143830697518 -0.00287530959141 0
-0.00154865240021 -0.00333242825657 0
-0.00165107668499 -0.00386627440725 0
-0.00176795782025 -0.00449816679785 0
-0.00188112669423 -0.00526206429153 0
-0.00199138375241 -0.00624438207984 0
-0.00200434286757 -0.00749862255229 0
-0.00178892419463 -0.00961941518282 0
-0.0014235342005 -0.0112465807328 0
-0.000980811475684 -0.0124010666565 0
-0.000516725201818 -0.0130882544007 0
-6.2202760351e-05 -0.0133120123367 0
0.000413841716366 -0.013087708757 0
0.000903376466706 -0.0123972575924 0
0.00132180948368 -0.0112407774176 0
0.00172413477922 -0.00961469564625 0
0.00191283633157 -0.00751563069245 0
0.00187731656883 -0.00623226187651 0
0.00178001139158 -0.00527057236421 0
0.0016670027086 -0.00450282503953 0
0.0015669129463 -0.0038739128163 0
0.00144901940531 -0.00333897427464 0
0.00133902229904 -0.00288162206891 0
0.00123187559623 -0.00248977124655 0
0.00113081687341 -0.00214963209619 0
0.00102874407402 -0.00184926785839 0
0.000934422873752 -0.00158655985725 0
0.000838035104417 -0.00135807130651 0
0.000751284549393 -0.00115872091397 0
0.000667563164565 -0.000986134407832 0
0.000592262699573 -0.000833020573275 0
0.000518453207168 -0.000700015649191 0
0.000448230313847 -0.000584932212958 0
0.000385948856131 -0.000484116934312 0
0.000327532642561 -0.000398084415739 0
0.000274577200279 -0.000322556856351 0
0.000225412030556 -0.000258278749307 0
0.000182536672832 -0.000202090453873 0
0.00014300441613 -0.000154736412782 0
0.0001089603318 -0.000112972312381 0
7.86076068689e-05 -7.74689457259e-05 0
5.21376250154e-05 -4.70174131399e-05 0
3.08448461832e-05 -1.94136228533e-05 0
1.27442905288e-05 4.56359534174e-06 0
-1.35468617964e-06 2.77425033627e-05 0
-1.21235518693e-05 4.8867014078e-05 0
-1.95779601471e-05 7.06161230582e-05 0
-2.42318501996e-05 9.24574077103e-05 0
-2.66324224976e-05 0.000115613697942 0
-2.74510457182e-05 0.000140406440023 0
-2.73036666873e-05 0.000166828202799 0
-5.5194929741e-05 0.000194584498097 0
-8.73740221989e-05 0.000194484342618 0
-0.000125119156339 0.00019275011072 0
-0.000169190697025 0.000188062437423 0
-0.000218341667304 0.000176343196714 0
-0.000268862663141 0.000156186395686 0
-0.000319244795321 0.000125889032701 0
-0.000357854001484 8.33945908376e-05 0
-0.000375405597668 3.21345716645e-05 0
-0.000360419104659 -2.56578688423e-05 0
-0.000290383267582 -7.16368248265e-05 0
-0.000170522700803 -8.32336967614e-05 0
-0.000516138406456 -0.000117593563103 0
8.19390179851e-05 1.13888212699e-05 0
-0.000928668518678 -0.00120097469056 0
-0.000637903721313 -0.00421264979417 0
0.000980063061096 -0.00289960519984 0
0.000664462760048 -0.000541387704316 0
0.00027230426804 2.52484256139e-05 0
0.000136092784612 4.97371030924e-05 0
-0.000243757568393 4.10012950032e-05 0
0.000105403392805 -7.00898798734e-06 0
0.000112058690674 3.8876401891e-05 0
0.000148969898477 7.85633342392e-05 0
-0.000410806899472 -0.00047687051657 0
-0.000930454004723 -0.00325170955126 0
0.00024655976065 -0.00010971073883 0
0.000444768490834 -0.006567667819 0
0.000600141316716 -0.00160061112574 0
-0.00023184403147 -0.000103805029629 0
0.000110202418678 1.68907505763e-05 0
0.000120146972674 6.18569141978e-05 0
-0.000259978775093 -0.0011787706388 0
0.000112315589331 6.57118408468e-05 0
-0.000819311170109 -0.00650712728918 0
0.000101050164972 -0.000723057645314 0
0.000686177440015 -0.00459952128013 0
0.000114915654133 7.79977521982e-05 0
-9.60470501106e-05 -0.00224162249495 0
4.70986349721e-05 -9.94681033573e-06 0
-0.00015293875918 -0.00946673915242 0
-6.65468451971e-06 -0.000279398153491 0
9.5958212389e-05 -0.00261657230866 0
8.86020094968e-05 2.22289665767e-05 0
0.000119103873021 3.3797950384e-05 0
-0.000129593167275 0.000102235322699 0
0.000118913599304 -1.9784248041e-05 0
7.35360763984e-05 -7.95286643842e-06 0
-0.000416891368765 9.37575545115e-06 0
-5.06381562781e-05 -0.000317675843131 0
0.000118495704231 5.38140616696e-06 0
-0.000109122480205 -1.52119599613e-05 0
0.000198841549533 4.02137624534e-05 0
0.000471963421129 -0.000135872313728 0
0.000347019165944 -0.00347359715203 0
0.000922881195305 -0.0012404927418 0
-0.00100783179941 -0.00222510439692 0
9.78790991938e-05 8.30847167763e-05 0
-0.000279409372832 -0.00411559857178 0
0.000509572981497 -0.008159576734 0
-9.88889186645e-05 -0.00138961446986 0
0.000120485390509 5.07222490209e-05 0
-0.000729034843915 -0.000433320123872 0
4.34324740693e-05 -0.000720277757969 0
-4.03930580098e-05 -0.000112460760338 0
-9.80679309729e-05 4.55579411915e-05 0
0.000121467205768 -7.08846839539e-06 0
0.000121949205485 2.1739275457e-05 0
-2.2931164558e-05 -0.000149754888589 0
0.000217697147668 1.00569503827e-05 0
-0.000356627881349 -0.006447001225 0
0.000335144659512 -0.000365721542604 0
0.000843338958446 -0.00282445226236 0
-0.000763926817563 -0.00186902381552 0
-0.000403513161623 -4.9959233147e-05 0
4.10287351273e-05 -2.33432215447e-07 0
0.000673551597979 -0.00109817634014 0
0.000221446957757 -1.53864420005e-05 0
-0.000786603493445 -0.000808114813651 0
-0.000451802201823 -0.0015553461559 0
0.000111921602251 1.60605561188e-05 0
0.00061960970431 -0.000390587164977 0
0.000117470777633 6.70969085346e-05 0
0.00024250780696 -0.00141843714951 0
3.67074915036e-05 4.7660682687e-05 0
-0.000368753453858 -0.00873453922806 0
-0.000205427211031 -0.000568871667553 0
5.67594103883e-05 -0.00570943034914 0
9.44445027625e-05 4.70505269867e-06 0
-0.000367664220728 -2.76483277235e-05 0
0.000134605096451 6.77818876734e-05 0
0.00011922455206 4.90208793114e-05 0
0.000101123677601 8.12745433412e-05 0
-0.000397972537087 -0.00351315271192 0
-0.000248149795556 9.82236233112e-05 0
0.000103561527512 -2.20303562934e-05 0
-0.000465190219814 -0.000225581272344 0
-0.000580856649499 -0.000186097794517 0
-0.00058908359152 -0.000319329195238 0
6.23498116378e-05 7.39765928756e-05 0
0.000100409368662 2.31101100814e-05 0
0.000125448518137 -0.00567074311346 0
-0.000399262775498 -0.00190242844397 0
0.000293187281996 -0.00311355057148 0
0.000144017768916 -0.0103353597275 0
-0.000378456294862 -0.0010067530057 0
-0.000627309391582 -0.00093262423726 0
0.000194475839759 6.21538854866e-05 0
-0.000970607499964 -0.00468625257749 0
0.000920716659025 -0.00449395674129 0
0.000546583129036 -0.000850934125175 0
5.88394475118e-05 8.61576199774e-06 0
0.000123765173611 4.29770588529e-05 0
0.000156653160962 -0.00050855364298 0
0.000423122310306 -0.000157889958312 0
4.69122442925e-05 -0.00149996167487 0
-0.000173464265253 -0.000220004386623 0
-6.56788052778e-05 -4.76569507344e-05 0
0.00012591486754 1.35481421999e-05 0
4.05298774006e-06 -7.7379779068e-05 0
4.83001512232e-05 -1.12041814124e-05 0
-0.000374607328521 -3.60937860846e-06 0
0.000111721738297 7.37695293776e-05 0
0.000121448631605 5.92748530905e-05 0
0.000504749307378 -0.00197899426284 0
0.000358994174471 -0.00104080280349 0
-8.92690188685e-05 -0.0111207475459 0
0.000125685376948 3.03696722566e-05 0
0.000163543194948 6.24842768351e-05 0
8.67263090039e-05 -2.00459734037e-05 0
-0.000352688607439 6.34892455313e-05 0
6.31943568931e-05 8.19344908978e-06 0
0.000108714021904 -0.000269267998154 0
-0.000629655977308 -0.00265344483547 0
-2.34169302378e-05 7.88665960977e-06 0
-0.000218826677129 -0.000365398653624 0
0.000115721742158 8.34058099624e-05 0
8.37757257091e-05 8.11796323064e-05 0
-5.08906485594e-05 -0.00801164314938 0
0.000125714156387 1.16126849849e-06 0
-4.39356702226e-05 3.67334499227e-06 0
0.000764493811042 -0.0022545632569 0
0.000347331734981 -3.18338468e-05 0
-8.1467652255e-05 0.000136818700161 0
0.000125735237996 -2.61488597408e-05 0
0.000346394991845 -6.65258779722e-05 0
0.000143809147611 -0.00517113864943 0
0.000920894332538 -0.00184178474708 0
-0.00104348969252 -0.00235507612761 0
0.000118050821196 5.10570337758e-05 0
-0.000318422055411 -0.000756918189479 0
0.000101177105345 2.96269697577e-05 0
0.00013441424517 7.80764905741e-05 0
-0.000880537745376 -0.00471072442773 0
0.000289887175537 -0.00109381232395 0
0.000804900464936 -0.00610826300516 0
0.000173822401065 1.33852267203e-05 0
0.000794772370329 -0.000858459872751 0
-0.000795021675629 -0.00143016340196 0
0.000422389853093 -0.000209256104087 0
-6.80726987995e-05 8.42565513718e-05 0
0.00012676247237 -1.58340253721e-05 0
0.000106583806389 4.07527388843e-06 0
-0.000246424875523 -1.05123298597e-05 0
-0.000260729336107 -0.000234404741814 0
0.000109723183873 2.72477544583e-05 0
0.000618231880802 -0.000307923644443 0
0.000528320731714 -0.00415574316792 0
-0.000532061753809 -0.00140852136592 0
-0.00021415096912 -0.00303128571754 0
0.000110997625821 2.81633097144e-05 0
-0.000869725917238 -0.000723500155168 0
0.000117321489269 4.24250029163e-05 0
9.16801422431e-05 -7.49351836032e-06 0
-0.000346678042948 3.00046407259e-05 0
-0.000151616700364 -0.000498511523088 0
0.000124589196702 5.07842637181e-05 0
-0.000645712930228 -0.000531670513076 0
0.000305447033199 -0.000727155884402 0
0.000189444055281 6.15674970347e-05 0
0.000104454506603 -6.92539051119e-05 0
-0.000512194205419 -0.00309151803203 0
0.000333617464527 -0.00823717396466 0
0.000249208435831 -0.0018584912675 0
0.000399893426125 -0.00113110818364 0
-0.000468275636991 -4.37896501138e-05 0
6.55657992136e-05 1.0804520619e-06 0
0.000267373760982 -5.67738896579e-05 0
0.000113442004678 -1.2694152368e-05 0
-0.00017231267381 6.92056714104e-05 0
8.27424223736e-05 1.70999986154e-05 0
0.000951125534263 -0.00170859879749 0
0.000255749814589 1.73026308473e-05 0
-0.000990224630172 -0.00141943747757 0
0.000153110599512 3.47212194847e-05 0
-0.000749620198303 -0.00268644255293 0
0.000788279452885 -0.00067172750631 0
0.000769388375512 -0.00382811329789 0
0.000358592602737 -0.00345647964221 0
0.000119208690785 7.00948890014e-05 0
0.000117091261763 1.34439750344e-05 0
-0.000118708129766 -7.03505702448e-05 0
0.000138809545607 7.61150313666e-05 0
0.000114064888717 -2.28811989103e-06 0
-0.000163181847223 2.42560667994e-05 0
-0.000194544673693 -0.0016827183534 0
8.83430600352e-05 3.76669001266e-05 0
-0.000561838216933 -0.00826394542593 0
1.49227855675e-05 -0.000460769329139 0
6.81246100724e-05 -1.93396583166e-05 0
-0.000396447171941 2.79373968395e-05 0
-0.000677977381419 -0.00456507328846 0
-0.000181206764739 0.000129913304297 0
0.000112240299621 -2.65039617602e-05 0
2.96287319453e-05 5.94009198093e-05 0
0.000180097574101 -0.00755486300398 0
-0.000412183990307 -0.00075749997099 0
-0.000374160149393 -0.000101242374247 0
-0.000602712804516 -0.000260099506814 0
0.000193911556937 -0.000225783054553 0
9.97856292858e-05 1.45026077277e-05 0
-0.000128518993178 -0.000122498887746 0
0.000112088329297 3.73783407534e-05 0
0.000808773602349 -0.00117573119514 0
-0.0010416982549 -0.00318339974716 0
7.11673021009e-05 6.71743783858e-05 0
-0.000531228229179 -0.00684152360153 0
-0.000137095055633 -0.000770126819369 0
0.000104500574325 7.75136125638e-05 0
0.000633266765551 -0.00490026407106 0
3.94530129536e-05 4.89842757228e-06 0
0.000126851611597 2.18581824492e-05 0
6.26873845696e-05 -0.000158878762167 0
0.000628720181948 -0.0024494809018 0
-3.58611309657e-05 -0.0117420924285 0
6.98237567755e-05 7.84716373439e-05 0
-6.57388329158e-05 -0.00986960062963 0
0.000127110391628 3.56860798193e-05 0
0.000126754594964 -7.02675242133e-06 0
-5.50913791656e-05 4.31962149846e-05 0
0.000184544160644 -0.00036409242438 0
0.00012465812789 5.97946263995e-05 0
0.000127346175528 7.95063723681e-06 0
-4.29580140711e-06 -3.87867922691e-05 0
-0.000611785478789 -0.00129374115752 0
0.000185643165107 5.01148119568e-05 0
-0.000796590818576 -0.00588474058153 0
0.000412887730503 -0.000617631023598 0
0.000914067326982 -0.00388118464492 0
3.14449138246e-05 1.72247914629e-06 0
-0.000328400774814 -8.39800615302e-05 0
0.000119542545368 5.88688441283e-05 0
0.000125999567523 -0.00432795586382 0
-3.16624625928e-05 -0.00100555325096 0
5.28414902922e-05 -0.000166765212194 0
-6.56180977362e-05 -0.00763564766369 0
0.000562057311441 -0.00241565316717 0
-0.000621123871044 -0.00234843379886 0
-0.000234713485762 -2.12300510816e-05 0
2.23556207418e-05 -3.69321538371e-06 0
-0.000407284888605 -0.000158893504663 0
0.000116667713318 2.6749794674e-05 0
-0.000133365381042 -0.000209837154416 0
0.000234479241553 4.48004884736e-05 0
0.000161967556312 -1.5415515657e-05 0
0.000630822793968 -0.00630451494593 0
-0.000825298225395 -0.000753450868723 0
9.54800089352e-05 7.89105620768e-05 0
-0.000570274479089 -0.0052941879327 0
-3.75912290625e-05 -0.00103321098505 0
9.77539992955e-05 -1.34706933556e-05 0
-0.000297052025708 5.80298118638e-05 0
0.000117839497229 6.65336922341e-05 0
9.86107184221e-05 8.37010485601e-05 0
8.23644250341e-05 -2.29954199065e-07 0
-0.000422202493952 -1.42841225634e-05 0
0.00052264828122 -0.00143781416214 0
1.13581933173e-05 4.61472754704e-05 0
8.16075764752e-06 -0.00917880110931 0
-0.000611119900957 -0.00556993157008 0
-0.000356179264436 -0.000600696934187 0
0.000563871213141 -0.00029513012183 0
0.000125992702193 7.30875491676e-05 0
9.34408697616e-05 -2.63554895815e-05 0
-0.000310548835152 9.69135473919e-05 0
0.000371649585928 -4.39325823199e-05 0
7.39949262317e-05 -1.00714950824e-06 0
0.000111056933956 3.97351809339e-05 0
0.000428488843563 -0.000301766711089 0
0.000447118530188 -0.000120660621672 0
-0.00037787778239 -0.000670932001053 0
0.000324104536408 -0.00236959367106 0
-0.000530031044704 -0.000119410130254 0
-0.000156441633462 -0.00408711501323 0
-0.000508290350518 -0.000359497053949 0
0.000126748112896 8.29619877046e-05 0
-0.000506828418143 -0.000357435261712 0
-0.000230380676635 -2.54971223537e-05 0
2.54116175761e-05 -1.22089702338e-05 0
0.000127505917686 -2.12956137629e-05 0
-6.74749696544e-05 0.000111045002898 0
0.00011436028827 3.46998577706e-05 0
0.000396664604218 -0.000187406718163 0
-0.00016421140024 -0.00102352220906 0
-0.000131498569205 0.000148254185352 0
0.000118768494685 -2.87475319492e-05 0
-0.000539626027129 -0.000576476136339 0
6.36017336455e-05 7.75807186274e-06 0
-0.000692920960768 -0.000345959181176 0
0.000525807014357 -0.000607271852689 0
0.000138444239045 -9.85139269901e-06 0
-0.000961471826072 -0.0016640685931 0
-0.000242932505092 -0.000327600403783 0
0.000285737615333 9.81281674314e-06 0
0.000999435697472 -0.00254688031616 0
9.46178633606e-05 7.92107729266e-05 0
-0.000964021630319 -0.00354826721745 0
2.59184024764e-05 -5.70292341303e-05 0
9.97025992772e-05 -1.119088313e-06 0
-0.000303043895192 1.13591172985e-05 0
5.58594491188e-05 4.66385712858e-06 0
0.000520208066174 -0.00036111264373 0
-0.000875357971455 -0.00228320993343 0
-0.000399514829249 -0.0048858009812 0
4.50469818295e-05 -0.0065706754157 0
0.000728166021496 -0.00222786212156 0
-0.000824523420582 -0.00240318086032 0
0.000243363755176 -3.58005082956e-05 0
-7.39684628687e-05 -1.94764935034e-05 0
-0.000282094904328 -0.000310319595775 0
6.57198119383e-05 1.19936201878e-05 0
0.000120029247962 -1.34172759167e-05 0
-0.000116718548799 7.4008888915e-05 0
0.000785596421694 -0.00346701125074 0
0.000734105875612 -0.00500094209625 0
-0.000671604409175 -0.00169720818092 0
-0.000586100543294 -0.00116041884044 0
-0.000425557802361 -6.65138242602e-06 0
6.09248218158e-05 -6.49757486339e-06 0
0.000132167112004 5.82473642805e-05 0
0.000113198751162 -1.94746002648e-05 0
-0.000174457798261 9.77019680812e-05 0
0.000106441908565 2.93112969475e-05 0
4.23575004353e-05 6.84814509687e-05 0
-0.000341115077077 -0.0120399662991 0
-0.000928213908042 -0.00389672441843 0
0.000717990038663 -0.000820137281687 0
0.000126662651559 4.58972629067e-05 0
0.000215627239803 -0.000333331740568 0
0.000309330737491 -0.00059717343402 0
-6.53501864283e-05 0.000157338179437 0
0.00012826416051 -2.96509769002e-05 0
0.000625119058338 -0.00736337108889 0
0.000234860851856 -0.00142369038241 0
-0.000693450151546 -0.00389988706382 0
-0.000283616799143 -5.9134523248e-05 0
9.3339376139e-05 2.20588259297e-05 0
0.000106687157295 1.04125448336e-05 0
0.000119949624466 -1.80230287377e-06 0
-0.000104697420829 2.17908897366e-05 0
0.000120554765242 3.9393837503e-05 0
0.000124903569063 5.45173010171e-05 0
0.000448196405463 -0.000878133492205 0
0.000145473179959 6.07768172778e-05 0
0.000166223515636 7.37037577477e-05 0
-0.00101215854342 -0.00396774239709 0
0.000786335403794 -0.00539606931953 0
0.00057469347878 -0.00119144042508 0
-0.000507576517907 -0.000678777153711 0
0.000747131759734 -0.00338852039087 0
-0.000808394943194 -0.00122265657714 0
0.000156827819228 3.56168876289e-05 0
-0.000518792845402 -0.00163208345239 0
-0.000591457594635 -0.00711067516309 0
0.00011324330343 8.44122478556e-06 0
0.000237581217266 3.95400913554e-05 0
-0.000174659395906 -3.15961520709e-05 0
-0.000763575690081 -0.00491197217937 0
0.00098630911042 -0.00346338968283 0
0.000565467801736 -0.000595552202524 0
0.000111834573943 8.14696724667e-05 0
0.000123491723152 7.92174077238e-05 0
-7.69583945324e-05 -0.00273346611115 0
0.000107978893366 -0.00966884934888 0
-1.87289658839e-05 -0.00208281108605 0
-0.000134288238658 -8.76605556191e-05 0
-0.00020240480948 -0.000177888380787 0