# vtk DataFile Version 2.0
Generated with Solid Solver
ASCII
DATASET UNSTRUCTURED_GRID
POINTS 1163 float 
0.0 3.5 0.0
2.2 3.5 0.0
2.2 4.0 0.0
0.0 4.0 0.0
0.0687499999999 3.5 0.0
0.1375 3.5 0.0
0.20625 3.5 0.0
0.275 3.5 0.0
0.343749999999 3.5 0.0
0.412499999999 3.5 0.0
0.481249999999 3.5 0.0
0.549999999999 3.5 0.0
0.618749999998 3.5 0.0
0.687499999998 3.5 0.0
0.756249999998 3.5 0.0
0.824999999998 3.5 0.0
0.893749999998 3.5 0.0
0.962499999997 3.5 0.0
1.03125 3.5 0.0
1.1 3.5 0.0
1.16875 3.5 0.0
1.2375 3.5 0.0
1.30625 3.5 0.0
1.375 3.5 0.0
1.44375 3.5 0.0
1.5125 3.5 0.0
1.58125 3.5 0.0
1.65 3.5 0.0
1.71875 3.5 0.0
1.7875 3.5 0.0
1.85625 3.5 0.0
1.925 3.5 0.0
1.99375 3.5 0.0
2.0625 3.5 0.0
2.13125 3.5 0.0
2.2 3.56430812579 0.0
2.2 3.6227083524 0.0
2.2 3.67574343203 0.0
2.2 3.72390623714 0.0
2.2 3.76764438299 0.0
2.2 3.80736436348 0.0
2.2 3.84343531161 0.0
2.2 3.87619247056 0.0
2.2 3.90594026646 0.0
2.2 3.93295517223 0.0
2.2 3.9574882542 0.0
2.2 3.97976750927 0.0
2.18000003888 4.0 0.0
2.15999995974 4.0 0.0
2.13999995594 4.0 0.0
2.12000003893 4.0 0.0
2.0999999813 4.0 0.0
2.07999993507 4.0 0.0
2.06000001965 4.0 0.0
2.04000002354 4.0 0.0
2.01999993997 4.0 0.0
1.99999999426 4.0 0.0
1.98000004623 4.0 0.0
1.95999996625 4.0 0.0
1.93999996787 4.0 0.0
1.92000005069 4.0 0.0
1.90000001292 4.0 0.0
1.87999994967 4.0 0.0
1.86000003245 4.0 0.0
1.84000003166 4.0 0.0
1.81999995194 4.0 0.0
1.80000002065 4.0 0.0
1.78000005962 4.0 0.0
1.75999997703 4.0 0.0
1.73999998149 4.0 0.0
1.72000006236 4.0 0.0
1.70000000651 4.0 0.0
1.67999995967 4.0 0.0
1.66000004242 4.0 0.0
1.64000004304 4.0 0.0
1.61999996152 4.0 0.0
1.6000000096 4.0 0.0
1.58000006667 4.0 0.0
1.55999998704 4.0 0.0
1.53999998381 4.0 0.0
1.52000006764 4.0 0.0
1.5000000299 4.0 0.0
1.47999996242 4.0 0.0
1.46000004337 4.0 0.0
1.4400000454 4.0 0.0
1.41999996386 4.0 0.0
1.40000002834 4.0 0.0
1.38000006734 4.0 0.0
1.35999998576 4.0 0.0
1.33999998537 4.0 0.0
1.32000006658 4.0 0.0
1.30000001585 4.0 0.0
1.27999996279 4.0 0.0
1.26000004759 4.0 0.0
1.24000004493 4.0 0.0
1.2199999616 4.0 0.0
1.20000000906 4.0 0.0
1.18000006792 4.0 0.0
1.15999998616 4.0 0.0
1.13999999119 4.0 0.0
1.12000007157 4.0 0.0
1.1 4.0 0.0
1.07999992843 4.0 0.0
1.06000000881 4.0 0.0
1.04000001384 4.0 0.0
1.01999993209 4.0 0.0
0.999999990948 4.0 0.0
0.98000003841 4.0 0.0
0.959999955072 4.0 0.0
0.939999952416 4.0 0.0
0.920000037214 4.0 0.0
0.899999984154 4.0 0.0
0.879999933427 4.0 0.0
0.860000014636 4.0 0.0
0.840000014246 4.0 0.0
0.819999932662 4.0 0.0
0.79999997166 4.0 0.0
0.780000036145 4.0 0.0
0.759999954604 4.0 0.0
0.73999995663 4.0 0.0
0.72000003758 4.0 0.0
0.699999970103 4.0 0.0
0.679999932361 4.0 0.0
0.660000016189 4.0 0.0
0.640000012962 4.0 0.0
0.61999993333 4.0 0.0
0.599999990406 4.0 0.0
0.58000003848 4.0 0.0
0.559999956964 4.0 0.0
0.539999957581 4.0 0.0
0.520000040329 4.0 0.0
0.499999993489 4.0 0.0
0.479999937647 4.0 0.0
0.460000018512 4.0 0.0
0.440000022972 4.0 0.0
0.419999940378 4.0 0.0
0.399999979352 4.0 0.0
0.380000048063 4.0 0.0
0.359999968347 4.0 0.0
0.339999967553 4.0 0.0
0.320000050328 4.0 0.0
0.299999987077 4.0 0.0
0.279999949312 4.0 0.0
0.260000032129 4.0 0.0
0.240000033752 4.0 0.0
0.219999953776 4.0 0.0
0.200000005737 4.0 0.0
0.180000060031 4.0 0.0
0.159999976465 4.0 0.0
0.139999980354 4.0 0.0
0.120000064926 4.0 0.0
0.100000018697 4.0 0.0
0.0799999610675 4.0 0.0
0.0600000440571 4.0 0.0
0.0400000402596 4.0 0.0
0.0199999611169 4.0 0.0
0.0 3.97976750927 0.0
0.0 3.9574882542 0.0
0.0 3.93295517223 0.0
0.0 3.90594026646 0.0
0.0 3.87619247056 0.0
0.0 3.84343531161 0.0
0.0 3.80736436348 0.0
0.0 3.76764438299 0.0
0.0 3.72390623714 0.0
0.0 3.67574343203 0.0
0.0 3.6227083524 0.0
0.0 3.56430812579 0.0
0.249757963562 3.75212589829 0.0
1.94999996706 3.74954522137 0.0
0.488710285893 3.75947702441 0.0
0.726520490699 3.7655965719 0.0
0.967283134849 3.7597072979 0.0
1.20619032017 3.75831098673 0.0
1.45842774915 3.76733088374 0.0
1.69012076678 3.7622332834 0.0
0.130754044069 3.86878249167 0.0
2.06924595593 3.86878249167 0.0
1.8299999918 3.84622455633 0.0
1.56816462369 3.85034872999 0.0
0.369913859351 3.84868157925 0.0
0.608733620231 3.84706187144 0.0
1.33069778866 3.84790908234 0.0
0.84323446252 3.84762979148 0.0
1.08873170817 3.84705870913 0.0
0.250539365135 3.87785524304 0.0
1.94967747948 3.87849609822 0.0
1.73218750075 3.8916046151 0.0
0.468661874066 3.89189322974 0.0
1.47574192429 3.89639134117 0.0
0.704258110321 3.8963912684 0.0
1.18331258449 3.8976320365 0.0
0.949999953744 3.89208018478 0.0
1.64795374468 3.91749779939 0.0
0.548928463645 3.91905583847 0.0
1.38619509199 3.91928594438 0.0
0.788926872841 3.91906062101 0.0
1.27071160784 3.91777932845 0.0
1.02999997296 3.91685174433 0.0
1.81733541416 3.69950870754 0.0
1.86999999106 3.91823503401 0.0
0.071252620538 3.93011431841 0.0
2.12874737946 3.93011431841 0.0
2.07400690796 3.74293885365 0.0
0.125993092043 3.74293885365 0.0
0.32995676804 3.92118147353 0.0
2.00999996712 3.92542383197 0.0
0.190000032884 3.92542383197 0.0
1.56698738743 3.72218882919 0.0
1.33000000474 3.72531695685 0.0
0.848014510843 3.71986098938 0.0
1.09024665585 3.72285801424 0.0
0.610276609989 3.72290563624 0.0
1.54999998543 3.92414142844 0.0
0.629999973146 3.92414137652 0.0
0.869999974031 3.92414141814 0.0
1.11000003579 3.92414141267 0.0
1.79030638642 3.92649353654 0.0
0.370434802927 3.72513294336 0.0
0.410903135411 3.92892991244 0.0
1.33000002597 3.93737911571 0.0
0.129927648482 3.94112154503 0.0
2.07007235152 3.94112154503 0.0
1.93000000928 3.93875927586 0.0
0.26999999072 3.93875927586 0.0
1.40966706061 3.83880068991 0.0
0.770332962441 3.83880062149 0.0
1.24904900022 3.84293377683 0.0
1.01033287484 3.83880060723 0.0
0.530342681434 3.83880307444 0.0
0.189895273961 3.63486992823 0.0
2.00989835291 3.62845703161 0.0
0.998888153878 3.61665036233 0.0
1.47894673873 3.61675180774 0.0
0.51733910646 3.62937665489 0.0
0.705112628302 3.618743723 0.0
1.66672137035 3.63168728155 0.0
1.18508242495 3.61871739348 0.0
1.71000003443 3.94408608591 0.0
0.489999965568 3.94463856597 0.0
1.44983363802 3.94422347836 0.0
0.729999997105 3.94465012565 0.0
1.21016639734 3.94422345842 0.0
0.928621800545 3.94440037102 0.0
2.00626203014 3.81543543551 0.0
0.193627962274 3.81528928332 0.0
1.66628164144 3.83559795895 0.0
1.75661718781 3.81065958113 0.0
1.61143779865 3.94859227761 0.0
0.991673865748 3.95161238438 0.0
0.0604617941233 3.86281264864 0.0
2.13953820588 3.86281264865 0.0
0.300965570716 3.8114148258 0.0
0.2970894797 3.66361086085 0.0
0.398842167194 3.60449226805 0.0
1.51000004877 3.95218393067 0.0
1.90135619383 3.81213273629 0.0
0.669405272842 3.95495208979 0.0
1.07142780558 3.94866325309 0.0
0.592085094025 3.94901139323 0.0
0.831051660929 3.94633985879 0.0
1.14940528892 3.9549521224 0.0
0.44409344258 3.82719938178 0.0
1.49646539728 3.82376850413 0.0
0.683434082651 3.82631713605 0.0
0.92337834777 3.8234861632 0.0
1.16343437877 3.82631615351 0.0
1.90749084149 3.65350700271 0.0
1.8278758005 3.95083911942 0.0
0.37243073327 3.95235211027 0.0
1.29345662549 3.60569899261 0.0
0.813407949226 3.60572380122 0.0
1.29317153636 3.96216077293 0.0
1.367704599 3.96055764734 0.0
1.97071235041 3.96038324024 0.0
0.22928764959 3.96038324024 0.0
2.10610581798 3.66047411138 0.0
0.0938941820177 3.66047411138 0.0
1.67000000105 3.95862953468 0.0
1.74869816704 3.96079301687 0.0
0.531976761939 3.96138655466 0.0
0.451361042387 3.96112774725 0.0
0.771976832233 3.96138887156 0.0
1.88843481911 3.95881554986 0.0
1.61277513709 3.78538823015 0.0
2.13311214501 3.79435403671 0.0
0.0668878549946 3.79435403671 0.0
1.76678797151 3.60286552601 0.0
0.311702446283 3.9611157379 0.0
1.02877762737 3.96159282031 0.0
1.40830122607 3.96143175203 0.0
1.25214210333 3.957355862 0.0
1.59476493393 3.9048774062 0.0
1.56950979124 3.96148017208 0.0
0.890017020275 3.96125792969 0.0
2.03089110475 3.96040268709 0.0
0.169108895255 3.96040268709 0.0
0.939722125942 3.68539157065 0.0
1.41686981874 3.69192854313 0.0
0.0426348006718 3.96101756902 0.0
2.15736519933 3.96101756902 0.0
1.36077308019 3.79177204211 0.0
0.817982383499 3.78962669257 0.0
1.05834720932 3.78780184893 0.0
0.578349529346 3.78781530011 0.0
1.77992711518 3.87652731382 0.0
0.417982153133 3.87594990465 0.0
1.84363633012 3.77741329286 0.0
1.52244994479 3.87704541475 0.0
0.657426528912 3.87734838249 0.0
1.13742651778 3.87734834025 0.0
0.898116026439 3.8800466833 0.0
1.56984259435 3.64465823131 0.0
1.08983016076 3.6446495206 0.0
0.609942357805 3.64483976081 0.0
1.29451769374 3.79627773068 0.0
0.0893439668432 3.96574839433 0.0
2.11065603316 3.96574839433 0.0
2.01422398896 3.86980625824 0.0
0.185776011038 3.86980625824 0.0
0.305957237756 3.87340573745 0.0
1.72977480551 3.68665973332 0.0
1.25418096296 3.69351129461 0.0
0.629999973146 3.96272981435 0.0
1.11000003579 3.96272983221 0.0
0.772975283819 3.69297597031 0.0
1.89089074715 3.86951346173 0.0
0.445448577516 3.69456159386 0.0
1.82621986864 3.89678318705 0.0
2.07135424223 3.81165410377 0.0
0.128645757768 3.81165410377 0.0
0.373320289473 3.89968791662 0.0
1.79000004014 3.96541718891 0.0
0.383302070088 3.78976392323 0.0
0.409457623385 3.96502881851 0.0
1.55531527123 3.78787141386 0.0
1.34861332978 3.89383287415 0.0
0.593245985735 3.89483466551 0.0
0.833245353375 3.89479604398 0.0
1.0732444554 3.8948349405 0.0
0.911896623122 3.59194725763 0.0
0.187580554011 3.70699710313 0.0
2.01241944599 3.70699710313 0.0
1.39201907571 3.59233063354 0.0
2.09635520798 3.90516200201 0.0
0.103644792024 3.90516200201 0.0
1.89086147526 3.72621461413 0.0
1.02102684616 3.70044819701 0.0
1.49813234221 3.70194667869 0.0
0.53965669049 3.70593418829 0.0
1.63719578665 3.69772473547 0.0
0.685447658936 3.70127585046 0.0
1.16541741817 3.70128744764 0.0
0.901649266036 3.76287226775 0.0
0.992351690321 3.90662993531 0.0
1.69131894868 3.90657323657 0.0
1.9699561555 3.91599371502 0.0
0.230043844497 3.91599371502 0.0
1.61980840676 3.85005402918 0.0
2.04685187594 3.90639759008 0.0
0.153148124058 3.90639759008 0.0
0.512139828486 3.90538520837 0.0
1.43057458921 3.90702644399 0.0
0.749149996349 3.90689574876 0.0
[...]
POINT_DATA 1163
VECTORS Displacement float
0.0 0.0 0
0.0 0.0 0
0.00917899353381 -0.00197799527121 0
-0.0114790594529 -0.00146180571355 0
0.0 0.0 0
0.0 0.0 0
0.0 0.0 0
0.0 0.0 0
0.0 0.0 0
0.0 0.0 0
0.0 0.0 0
0.0 0.0 0
0.0 0.0 0
0.0 0.0 0
0.0 0.0 0
0.0 0.0 0
0.0 0.0 0
0.0 0.0 0
0.0 0.0 0
0.0 0.0 0
0.0 0.0 0
0.0 0.0 0
0.0 0.0 0
0.0 0.0 0
0.0 0.0 0
0.0 0.0 0
0.0 0.0 0
0.0 0.0 0
0.0 0.0 0
0.0 0.0 0
0.0 0.0 0
0.0 0.0 0
0.0 0.0 0
0.0 0.0 0
0.0 0.0 0
0.00199751761451 -0.00163936515963 0
0.00362400006337 -0.00224542019619 0
0.00498056443942 -0.00244184083644 0
0.00598485524176 -0.0024342579687 0
0.00673157551917 -0.00234446217516 0
0.00729248022606 -0.0022305376054 0
0.00770623506258 -0.00213617357553 0
0.00804594204812 -0.00206280061205 0
0.00832154495447 -0.0020138652886 0
0.00856287933968 -0.0019905686406 0
0.00878302945601 -0.00198030098954 0
0.00898824941191 -0.00197772378157 0
0.00917927538353 -0.00178848096719 0
0.00917820415658 -0.00159424131067 0
0.00917233138815 -0.00139593979221 0
0.00915928295184 -0.00119498452266 0
0.00913792334237 -0.000994550279045 0
0.00910776115401 -0.00079901530941 0
0.00906666689933 -0.000608093512641 0
0.00901711518634 -0.000429631073983 0
0.00895570383513 -0.000261137843693 0
0.00888718784393 -0.000109721395407 0
0.00880383207697 2.63809285937e-05 0
0.00871037268958 0.000139440733521 0
0.0086087550575 0.000227780140878 0
0.00849120064743 0.000292734987822 0
0.00836557577088 0.000325926998175 0
0.00821932219657 0.000329551999315 0
0.00806138518119 0.000293171674104 0
0.00788388859244 0.000220799226665 0
0.00769104404685 9.70699640338e-05 0
0.00746728599031 -7.77080448787e-05 0
0.00722708486239 -0.000313220877395 0
0.00697558508942 -0.000618272612408 0
0.00668510033329 -0.00098421709689 0
0.00637366678534 -0.00144474252255 0
0.00601771694409 -0.00199427137525 0
0.00565204331197 -0.0026546858513 0
0.00523218001532 -0.00342770264934 0
0.00478435817554 -0.00434783854979 0
0.00429843936089 -0.00541401294059 0
0.0038142198473 -0.0066490755185 0
0.00329255542385 -0.00809883285911 0
0.00269284482151 -0.00974118512413 0
0.00210504946679 -0.011635996437 0
0.00147776091442 -0.0138175726475 0
0.00085528096667 -0.0163228765508 0
0.000214386299786 -0.0191831568593 0
-0.000424338246771 -0.0224732921724 0
-0.00106024906323 -0.0263215484365 0
-0.00152522816908 -0.0307503168888 0
-0.0019145919019 -0.0360523642413 0
-0.00189488750906 -0.0422287679754 0
-0.00116439485159 -0.0500617504522 0
0.000508289321249 -0.0598497553048 0
0.00244708437928 -0.0688832062377 0
0.00409498829423 -0.0776027833259 0
0.00556970138662 -0.0857325185932 0
0.00680484535472 -0.0934426394936 0
0.00788382240673 -0.100678013456 0
0.00862939193272 -0.107492034236 0
0.00918236440192 -0.113835721112 0
0.00946450507218 -0.119786462474 0
0.00949846445809 -0.125254745931 0
0.0092810930114 -0.130256326644 0
0.00885429778399 -0.134763593696 0
0.0082005845166 -0.138782778909 0
0.00735594050148 -0.1422936038 0
0.00637636880792 -0.145277004103 0
0.00522269353611 -0.147739080159 0
0.00392710269596 -0.149660367933 0
0.00254427926434 -0.151032218732 0
0.00107067912961 -0.151836533238 0
-0.000500657758443 -0.152065254606 0
-0.00220493478753 -0.151836395454 0
-0.00375075158288 -0.150989570556 0
-0.00516373941945 -0.149587030023 0
-0.00646344435316 -0.1476353372 0
-0.00766121342824 -0.145141989494 0
-0.00866140866056 -0.142124849357 0
-0.00950340276908 -0.138584205842 0
-0.0101536314113 -0.13453494568 0
-0.0106033771279 -0.129989683178 0
-0.0108495790218 -0.124947094974 0
-0.0108666825963 -0.119416784157 0
-0.0106039476169 -0.113496699755 0
-0.0101470223752 -0.107085945895 0
-0.00941616983874 -0.100211826902 0
-0.00839926951136 -0.0929122151072 0
-0.00712186670056 -0.0851740175251 0
-0.00569442191205 -0.0769943706425 0
-0.00395699725826 -0.068234033631 0
-0.00234729967065 -0.0590035660451 0
-0.000576171761075 -0.0491745181135 0
-0.000183574343798 -0.0417927047118 0
-0.000464817182869 -0.0356597218131 0
-0.000909997202202 -0.0306187159849 0
-0.00162343206524 -0.0262842861378 0
-0.00230315354092 -0.0226316781119 0
-0.00305483424277 -0.0194585597062 0
-0.0037514001942 -0.0167110759499 0
-0.00449615943155 -0.0143203562307 0
-0.00526051117347 -0.0122715884072 0
-0.00594922338967 -0.0104975858864 0
-0.00661468260982 -0.00899024248306 0
-0.00725059169257 -0.00768757067187 0
-0.00785353934142 -0.00659127290997 0
-0.0083904864594 -0.00565813753335 0
-0.00891079637846 -0.00488763521899 0
-0.00936641309998 -0.00424546288801 0
-0.00979217022317 -0.00372453995896 0
-0.0101733866029 -0.00331667104724 0
-0.0104881842151 -0.0029819198781 0
-0.0107695598257 -0.00272654546501 0
-0.0109947377768 -0.00251512521078 0
-0.0111784574508 -0.00235734636169 0
-0.0113108444248 -0.0022148272921 0
-0.0114017350466 -0.00208898357503 0
-0.0114550957907 -0.00195948781581 0
-0.0114778073867 -0.00181414864019 0
-0.0114806005787 -0.00164829158964 0
-0.0116712513728 -0.00146029363588 0
-0.0119043772563 -0.00146893537114 0
-0.012190291731 -0.00150957180483 0
-0.012520652395 -0.00160485199781 0
-0.0128580226208 -0.00181336161567 0
-0.0131051052711 -0.00213928744435 0
-0.013238672076 -0.00258593815192 0
-0.0130108546554 -0.00316666773538 0
-0.0122815005552 -0.00376684117515 0
-0.0108236513023 -0.00427933651092 0
-0.00825747481686 -0.00434006212242 0
-0.00473025057617 -0.0034265053361 0
-0.0151208543014 -0.00400574837475 0
0.00732133811495 -5.92216255255e-05 0
-0.0214817946654 -0.0210873185269 0
-0.018215568447 -0.0563586477037 0
8.81658458032e-05 -0.0702754052037 0
0.017510283809 -0.0533284918894 0
0.0192529335747 -0.0183737517589 0
0.011961034743 -0.00253035658274 0
-0.0131930906709 -0.00232389233704 0
0.00805038837692 -0.000678372697333 0
0.00909344351308 0.000113326700409 0
0.013651245355 -0.00876112919683 0
-0.016705914639 -0.0107324886251 0
-0.0222611116747 -0.0511598711275 0
0.0205397865321 -0.0471877559185 0
-0.0106462461998 -0.0927323059043 0
0.0102459532046 -0.0915393967119 0
-0.0136215951574 -0.00422527242316 0
0.00835236133529 0.000221344769298 0
0.0093639539832 -0.0010228235198 0
-0.0169285824772 -0.0234829812013 0
0.0135439944641 -0.0195024501651 0
-0.0181658316718 -0.0837096139815 0
0.0152539994643 -0.0915684665118 0
-0.00152663226385 -0.113274248924 0
0.00902656752138 -0.00374519264264 0
-0.0170274173583 -0.0428343178824 0
0.014473270747 -0.0389547638852 0
-0.0133367469642 -0.107401174859 0
0.0164869721581 -0.0742566076742 0
0.00507937539433 -0.119374596622 0
0.00831155457827 -0.000593829734836 0
0.00848739528502 0.000403115550404 0
-0.0122359349609 -0.00202206487398 0
0.00854101521987 -0.00127906062438 0
0.00647500045139 -0.000764860551825 0
-0.0132165414215 -0.00234591746055 0
-0.0121733205606 -0.00791790020798 0
0.00847133429922 -0.000137260324364 0
-0.0120749300368 -0.00290455617066 0
0.0153189719537 -0.00760962831339 0
0.0201114465929 -0.0308871269183 0
-0.00926860077796 -0.0552714942329 0
0.00967420493249 -0.0551301536692 0
-0.0209250170559 -0.0327949382025 0
0.00940113465949 -0.0103742750864 0
-0.017740624806 -0.0689851865481 0
-0.00788957229599 -0.12010452648 0
0.0105733793998 -0.11270716564 0
0.00845009335931 -5.17626979692e-05 0
-0.0177283110953 -0.00895676400833 0
-0.0121301319193 -0.0152216471937 0
0.0140925304323 -0.0580983177244 0
-0.0119308307707 -0.00231675026684 0
0.00860487445167 -0.000678395494167 0
0.0084628071233 0.000332698886852 0
-0.011321192406 -0.00493432897622 0
0.0194587707904 -0.0294413804461 0
-0.0159741735968 -0.0811929755306 0
0.0194846011359 -0.0646589384526 0
0.00382520203964 -0.0944154002005 0
-0.0218320848325 -0.0331148278653 0
-0.00997587633844 -0.00207231366877 0
0.00413678658038 -0.000349826912328 0
0.001790145807 -0.0288355209766 0
0.0126396178546 -0.00818801298904 0
-0.0154146771574 -0.0129890491382 0
-0.0124663962823 -0.0224223538266 0
0.00937676718187 -0.0025711489518 0
0.0107886559937 -0.0239948548029 0
0.007930904233 -0.00152034789003 0
-0.0116132689652 -0.0281644067588 0
0.00882241559211 -0.0242321398621 0
-0.0146468477739 -0.102058857352 0
0.0135796415061 -0.0971343310569 0
-0.00316710544212 -0.131066845311 0
0.00772281787161 -0.000187477226751 0
-0.0142383877967 -0.00293752709853 0
0.0117396801175 -0.00316588048668 0
0.0103101083876 -0.000851730513269 0
0.00738496730141 -0.00568433811604 0
0.00189417295986 -0.133662879076 0
-0.0131092125106 -0.00215206529807 0
0.00794218132855 -0.0014262428462 0
-0.0160971028812 -0.00613994055668 0
-0.0135777860794 -0.0044122200919 0
-0.0118444399443 -0.00587004819334 0
0.0070026764115 -0.0148073560853 0
0.00840087383124 0.000185899787221 0
-0.0145430170167 -0.087328174524 0
0.00771264692333 -0.126131522736 0
-0.0144329977361 -0.0595823728081 0
-0.0102035373267 -0.122778339689 0
0.0114589124092 -0.114737175099 0
-0.0197433201547 -0.0183693073669 0
0.0170721889376 -0.0156712815773 0
-0.020770874689 -0.0633010122955 0
-0.00389384551927 -0.0899872846928 0
0.0155688599944 -0.0760652959792 0
0.0057951266381 -0.00030511699937 0
0.00819285736312 0.00025681028162 0
-0.00983902801071 -0.0112396161944 0
0.0124768921984 -0.0162658423408 0
-0.00753900878861 -0.0237935987885 0
0.0113613596285 -0.0747026287637 0
0.00899945992994 -0.0464001477152 0
0.00858176089421 0.000126865432817 0
-0.0108011284941 -0.00374461339882 0
0.00461331075255 -0.000932220938626 0
-0.0103580816184 -0.00213343098923 0
0.00717274044917 -0.00283103400326 0
0.00765617671921 -0.000675348681966 0
-0.00999974118135 -0.0390360402967 0
-0.00857690762799 -0.0209236405655 0
-0.012573988903 -0.116678534253 0
0.00834629109675 0.000406144158033 0
0.0140957591761 -0.00566442644756 0
0.00716981322614 -0.00139064108909 0
-0.0134472127908 -0.00241494097601 0
0.0060541153539 -0.00106864228298 0
-0.00978105662249 -0.00692500494954 0
0.00468637963896 -0.135025178007 0
0.00714881688267 -0.0336433466119 0
0.0127143349391 -0.0878519884525 0
0.0102178002863 -0.00673680025138 0
0.00622649005543 -0.00868001855835 0
-0.00605413884173 -0.134756357834 0
0.00869988272192 -0.000320450770856 0
-0.0113523801574 -0.00269191361985 0
-0.00200635974346 -0.048059663424 0
0.0183687904507 -0.0177463329102 0
-0.0118572283429 -0.00183501085403 0
0.00881343303772 -0.00156812577131 0
0.0212819065889 -0.0345472175259 0
-0.0125999812574 -0.0729874506717 0
0.00787778284171 -0.0759336927217 0
-0.0228757608335 -0.0370804206871 0
0.00927503477047 -0.00025762768614 0
-0.0165768691809 -0.0158474825223 0
0.00890513760338 -9.62693259638e-05 0
0.0135001897103 -0.0132589674922 0
-0.0204542329931 -0.0681070216973 0
0.0132946887127 -0.0942453455341 0
-0.00601829813039 -0.107467781086 0
0.0124761529627 -0.00562020268143 0
0.00751324725548 -0.0342367444812 0
-0.0163995067712 -0.0210657038242 0
0.0209823570597 -0.0471145376714 0
-0.0117058125263 -0.00210748506707 0
0.00883432995527 -0.00109169721731 0
0.00814617188913 -0.000189169808481 0
-0.0133946129459 -0.00282146163322 0
-0.0144077977584 -0.00647797471332 0
0.00989440661637 -0.00169999000058 0
0.017324701425 -0.0343712822561 0
-0.0130932861823 -0.0753993628147 0
0.00956904887751 -0.124841475791 0
-0.0135619066968 -0.0433546318418 0
0.00857997413224 0.000352797601556 0
-0.0186960467364 -0.0129736639327 0
0.00874267310564 0.000223932051059 0
0.00747541088329 -0.000720137590725 0
-0.0137167754389 -0.00235802431164 0
-0.0140007459577 -0.0112392387653 0
0.00783533929723 -8.6713020159e-05 0
-0.0185828300234 -0.0112440099579 0
-0.00827185695363 -0.0151193569266 0
0.0158918721517 -0.00943773193802 0
0.0179664501355 -0.0478847647083 0
-0.0200652840341 -0.0536773106402 0
-0.010976754873 -0.106491712947 0
0.0086084245636 -0.1081932784 0
-0.00244731005099 -0.0222547499656 0
-0.0130560341204 -0.00259359640076 0
0.00607047437863 -0.000354041579394 0
0.0114660938755 -0.0099025956112 0
0.00833490907602 -0.000942368274096 0
-0.0125975149435 -0.00217064333176 0
0.00763491860103 -0.000143721271609 0
0.00420916410089 -0.0516993088689 0
0.0169304016631 -0.0116410633034 0
-0.0204623543872 -0.0225711856022 0
0.0126644867834 -0.00408101685962 0
-0.0180573385061 -0.0375225034176 0
0.0138585468212 -0.0440990188846 0
-0.00558168257764 -0.0702264592323 0
0.00204468758221 -0.11780434076 0
0.00922025347579 -0.00209556553405 0
0.00843341698167 0.000139986657659 0
-0.0122972330417 -0.0036790722109 0
0.0123231575268 -0.00532245894099 0
0.0083533975677 -0.00045652964322 0
-0.0125612395097 -0.00247011001908 0
-0.0171818392839 -0.0326107639959 0
0.0141059804586 -0.0278039350375 0
-0.0157944230451 -0.0963114527501 0
0.0161857422172 -0.0843822483346 0
0.00605472724531 -0.00142203103438 0
-0.0125406292345 -0.00263556361189 0
-0.000818780995623 -0.13964524302 0
-0.0126388656811 -0.00195066128624 0
0.00828418308807 -0.0016117505317 0
0.0052001757601 -0.0193457891988 0
-0.0134428475803 -0.0999847119533 0
0.0116594852848 -0.110267345207 0
-0.0148053307536 -0.00409576066169 0
-0.0166256613569 -0.00636845127024 0
0.0193761272016 -0.0614481406254 0
0.00809862587092 0.000116749103695 0
0.00972652831011 -0.0611776741448 0
0.010072865882 -0.000980560773126 0
0.0124109160469 -0.0685629772711 0
-0.0219589511242 -0.0458024354147 0
0.00988194874884 -0.0186049706601 0
-0.0163972779871 -0.0901704824476 0
0.0135695073631 -0.101520978582 0
0.00648945687652 -0.00427107492334 0
-0.00829969264935 -0.0795715582023 0
0.00406862630127 -0.00046465566645 0
0.00848008598294 0.000315062563636 0
-0.0101486126968 -0.00502703555877 0
-0.010105052966 -0.0486899928089 0
-0.0113363679939 -0.123762640556 0
0.00567297208386 -0.0112579920109 0
-0.00796214531244 -0.133203063764 0
0.00820469849246 0.000369269157702 0
0.0087934881307 -0.000682772135296 0
-0.0115205095293 -0.00235250121778 0
-0.0089176077545 -0.0085548486841 0
0.010595539635 -0.00148287456962 0
0.00868047786809 -6.29931807514e-05 0
-0.0108759140392 -0.00319878533224 0
-0.0202813136862 -0.0246112105311 0
0.0175911340264 -0.0214758469135 0
-0.0187548254159 -0.0750129042005 0
0.0174106878077 -0.074146466072 0
-0.000412024663982 -0.0976788633018 0
0.00330819102375 -0.000331516596088 0
-0.00726196292648 -0.00204613404183 0
0.00867659046515 -0.000619410525162 0
-0.000350226957407 -0.126487465136 0
-0.0139427763265 -0.0204928967696 0
0.0174034415411 -0.0617838643522 0
-0.0137982417341 -0.0944529041058 0
0.00601404319566 -0.103526324692 0
-0.0209972900235 -0.0417266786718 0
-0.00571605419765 -0.00122743059224 0
0.0023450429758 -0.000405098872196 0
-0.00834989994982 -0.00316836597731 0
0.00848474559131 0.000393722252191 0
-0.0128909840554 -0.00603475202218 0
0.0177826123693 -0.0133970572692 0
0.0186658458091 -0.0371629658781 0
-0.00498892384101 -0.118923817027 0
-0.0198437015505 -0.0142598088152 0
0.0104191301317 -0.0137876022816 0
-0.0180064663216 -0.0780960256403 0
0.0126939069022 -0.104570131882 0
0.00771990518442 -0.00101042366544 0
-0.0134427768707 -0.00226988523669 0
0.00713635665375 -0.00158394527324 0
0.00847332831738 -0.00810803483995 0
0.00708018088502 -0.000398790319309 0
-0.0139926010198 -0.00261272035889 0
-0.00753314851989 -0.0283093387728 0
0.00538169434001 -0.0234551975126 0
-0.0133652698513 -0.106750746479 0
-0.00278149470471 -0.139870483825 0
0.0119483711544 -0.103646537165 0
0.0194991921145 -0.0425596246387 0
0.0106520324687 -0.00314167376902 0
0.00748151898469 -0.00169906756889 0
-0.0133408487631 -0.00236967369242 0
0.020045829068 -0.0238308988883 0
0.00576759867289 -0.002078388316 0
0.00959718081391 -0.000280830758897 0
0.00529958230037 -0.0130945489054 0
0.0170175257196 -0.0213184426464 0
-0.00825599314385 -0.00999451754371 0
-0.00737974478816 -0.0395191817693 0
-0.013317823539 -0.00350841992434 0
-0.0143038246963 -0.0570776327566 0
-0.0170887777789 -0.00850169359548 0
0.0119289465203 -0.00889930469645 0
-0.00966343531511 -0.00601815157638 0
-0.0060979400914 -0.00202848103088 0
0.00256158828931 -0.000999950166744 0
0.00887888635908 -0.00134643472711 0
-0.0117335738174 -0.00197279744288 0
0.00870272240809 0.000334417421326 0
0.00867702114811 -0.0134791106796 0
-0.00750484954032 -0.0153944616612 0
-0.0122507443903 -0.0018029041176 0
0.00853720719051 -0.00169534020147 0
-0.0102888341275 -0.00891346223656 0
0.00610175272454 -0.000223626818989 0
-0.0153477047661 -0.00696521616047 0
0.00298126314633 -0.0183000215012 0
0.00865449384808 -0.00456197212689 0
-0.0224796694108 -0.028302180061 0
-0.0145272742912 -0.00813157155644 0
0.0201089510124 -0.0235341736542 0
0.00350426615762 -0.0776449741726 0
0.00560107454285 -0.00593829975411 0
0.00177868581949 -0.142547110723 0
0.0152899640566 -0.0480888186887 0
0.00786950034685 -0.000412730001934 0
-0.0137043652649 -0.00253735766591 0
0.00509291461598 -0.00120661669603 0
0.0198185133546 -0.0533690853886 0
0.00593555763368 -0.138603691835 0
-0.0165260794647 -0.0649469522404 0
-0.0135184361327 -0.0860513019398 0
0.00673806509821 -0.0945679685636 0
-0.0222465022496 -0.0409128320898 0
0.020516543825 -0.0370952365965 0
0.00388975548873 -0.0385831814471 0
0.00980760063242 -0.0859711047416 0
0.00644612836726 -0.000521278337672 0
0.00857165941191 -0.000973971652533 0
-0.0121151232242 -0.00214487579046 0
-0.0108647632802 -0.0678789496501 0
-0.0122031322724 -0.0857453937193 0
0.00826564489826 -0.131101102164 0
0.0102210797907 -0.123342123576 0
-0.0121862422746 -0.00221528057595 0
0.00563867617724 -0.000682292473262 0
0.0115663162569 -0.00219856952068 0
0.00832441789412 -0.00127261743827 0
-0.012600141902 -0.00206390832419 0
0.0086988606765 0.000244235673078 0
0.0035261626553 -0.0149084511455 0
-0.00945985102061 -0.134705806213 0
-0.0206376352046 -0.0531782536197 0
0.0154087052578 -0.0637207055191 0
0.00788719465574 0.00012492640131 0
0.0189269370931 -0.0686743893517 0
-0.00773199598684 -0.012689830625 0
-0.0117422622502 -0.00171046779729 0
0.00891989202366 -0.00172245118858 0
-0.00856627747354 -0.108861947265 0
0.0110219765434 -0.102739914704 0
-0.0203600429074 -0.062282491528 0
-0.0139131760343 -0.00348997678109 0
0.0082371050134 3.31785847606e-05 0
0.00820581292492 3.46873567639e-05 0
0.00853645520907 -0.000437405208605 0
-0.0119933895515 -0.00250120915354 0
0.00843755303793 0.0003426475086 0
0.00748763916833 -0.000367815819592 0
-0.00651642915049 -0.0177473170009 0
0.0127327787181 -0.00364474579012 0
0.0152384820302 -0.0119372351668 0
-0.0218883344402 -0.0574950100713 0
-0.00691529463927 -0.091659606739 0
0.0129702199361 -0.0841917897959 0
-0.0181843514379 -0.0142165467431 0
0.0019672811353 -0.104652104841 0
-0.0213581894308 -0.0224979909963 0
0.0173574789552 -0.0269052889841 0
-0.0199949625891 -0.0306886304953 0
-0.0168480244038 -0.0865016635535 0
0.00834627275878 -2.14654318517e-05 0
0.0188696442973 -0.019807376241 0
-0.0127989513341 -0.00311395388672 0
-0.0190819352751 -0.0642629966832 0
-0.000589283078216 -0.0836868412743 0
0.0177090257901 -0.0643646421569 0
0.0091035127255 -0.0052062730559 0
0.0105760429793 -0.00454450627478 0
-0.0171788365469 -0.0513936723238 0
-0.0116719680612 -0.113326037551 0
0.00727038532932 -0.118242660314 0
0.00617775912458 -0.0542474197491 0
0.00798275371388 -0.0704431414159 0
0.0155122387537 -0.0171842382123 0
-0.0198721392486 -0.0731093889575 0
0.0154532506963 -0.0855776719689 0
-0.00310785256882 -0.103923678434 0
0.00857968747731 0.000224144478031 0
-0.00985589857819 -0.00443758954615 0
-0.0116898574019 -0.00975966635679 0
0.0131301594921 -0.00398225626889 0
0.0109880416836 -0.0299165585767 0
0.0145987657397 -0.0878324149456 0
0.00981680800348 -0.000785570624987 0
0.00841391099174 0.000352296682933 0
-0.012860395488 -0.0939987392005 0
0.0109884250452 -0.117091102227 0
0.00765989064546 -4.21832435535e-05 0
-0.0148279199629 -0.00351304172437 0
0.00551828413251 -0.0651846020497 0
-0.0129625597509 -0.00204636318123 0
0.00803289192245 -0.00169402337408 0
-0.0157332489577 -0.00824028146165 0
-0.0221651008995 -0.0292463333286 0
-0.00916094013687 -0.00590293869904 0
-0.018390947102 -0.0202066734379 0
0.00843323971652 0.000275777331097 0
-0.0125728477286 -0.00439730840146 0
0.00998228142615 -0.00213135471547 0
-0.00553408303086 -0.00123516439315 0
0.00226406836777 -0.000251119988749 0
-0.0146403321816 -0.00498648677092 0
0.000274270020401 -0.0166499215071 0