# vtk DataFile Version 2.0
Generated with Solid Solver
ASCII
DATASET UNSTRUCTURED_GRID
POINTS 1163 float 
0.0 3.5 0.0
2.2 3.5 0.0
2.2 4.0 0.0
0.0 4.0 0.0
0.0687499999999 3.5 0.0
0.1375 3.5 0.0
0.20625 3.5 0.0
0.275 3.5 0.0
0.343749999999 3.5 0.0
0.412499999999 3.5 0.0
0.481249999999 3.5 0.0
0.549999999999 3.5 0.0
0.618749999998 3.5 0.0
0.687499999998 3.5 0.0
0.756249999998 3.5 0.0
0.824999999998 3.5 0.0
0.893749999998 3.5 0.0
0.962499999997 3.5 0.0
1.03125 3.5 0.0
1.1 3.5 0.0
1.16875 3.5 0.0
1.2375 3.5 0.0
1.30625 3.5 0.0
1.375 3.5 0.0
1.44375 3.5 0.0
1.5125 3.5 0.0
1.58125 3.5 0.0
1.65 3.5 0.0
1.71875 3.5 0.0
1.7875 3.5 0.0
1.85625 3.5 0.0
1.925 3.5 0.0
1.99375 3.5 0.0
2.0625 3.5 0.0
2.13125 3.5 0.0
2.2 3.56430812579 0.0
2.2 3.6227083524 0.0
2.2 3.67574343203 0.0
2.2 3.72390623714 0.0
2.2 3.76764438299 0.0
2.2 3.80736436348 0.0
2.2 3.84343531161 0.0
2.2 3.87619247056 0.0
2.2 3.90594026646 0.0
2.2 3.93295517223 0.0
2.2 3.9574882542 0.0
2.2 3.97976750927 0.0
2.18000003888 4.0 0.0
2.15999995974 4.0 0.0
2.13999995594 4.0 0.0
2.12000003893 4.0 0.0
2.0999999813 4.0 0.0
2.07999993507 4.0 0.0
2.06000001965 4.0 0.0
2.04000002354 4.0 0.0
2.01999993997 4.0 0.0
1.99999999426 4.0 0.0
1.98000004623 4.0 0.0
1.95999996625 4.0 0.0
1.93999996787 4.0 0.0
1.92000005069 4.0 0.0
1.90000001292 4.0 0.0
1.87999994967 4.0 0.0
1.86000003245 4.0 0.0
1.84000003166 4.0 0.0
1.81999995194 4.0 0.0
1.80000002065 4.0 0.0
1.78000005962 4.0 0.0
1.75999997703 4.0 0.0
1.73999998149 4.0 0.0
1.72000006236 4.0 0.0
1.70000000651 4.0 0.0
1.67999995967 4.0 0.0
1.66000004242 4.0 0.0
1.64000004304 4.0 0.0
1.61999996152 4.0 0.0
1.6000000096 4.0 0.0
1.58000006667 4.0 0.0
1.55999998704 4.0 0.0
1.53999998381 4.0 0.0
1.52000006764 4.0 0.0
1.5000000299 4.0 0.0
1.47999996242 4.0 0.0
1.46000004337 4.0 0.0
1.4400000454 4.0 0.0
1.41999996386 4.0 0.0
1.40000002834 4.0 0.0
1.38000006734 4.0 0.0
1.35999998576 4.0 0.0
1.33999998537 4.0 0.0
1.32000006658 4.0 0.0
1.30000001585 4.0 0.0
1.27999996279 4.0 0.0
1.26000004759 4.0 0.0
1.24000004493 4.0 0.0
1.2199999616 4.0 0.0
1.20000000906 4.0 0.0
1.18000006792 4.0 0.0
1.15999998616 4.0 0.0
1.13999999119 4.0 0.0
1.12000007157 4.0 0.0
1.1 4.0 0.0
1.07999992843 4.0 0.0
1.06000000881 4.0 0.0
1.04000001384 4.0 0.0
1.01999993209 4.0 0.0
0.999999990948 4.0 0.0
0.98000003841 4.0 0.0
0.959999955072 4.0 0.0
0.939999952416 4.0 0.0
0.920000037214 4.0 0.0
0.899999984154 4.0 0.0
0.879999933427 4.0 0.0
0.860000014636 4.0 0.0
0.840000014246 4.0 0.0
0.819999932662 4.0 0.0
0.79999997166 4.0 0.0
0.780000036145 4.0 0.0
0.759999954604 4.0 0.0
0.73999995663 4.0 0.0
0.72000003758 4.0 0.0
0.699999970103 4.0 0.0
0.679999932361 4.0 0.0
0.660000016189 4.0 0.0
0.640000012962 4.0 0.0
0.61999993333 4.0 0.0
0.599999990406 4.0 0.0
0.58000003848 4.0 0.0
0.559999956964 4.0 0.0
0.539999957581 4.0 0.0
0.520000040329 4.0 0.0
0.499999993489 4.0 0.0
0.479999937647 4.0 0.0
0.460000018512 4.0 0.0
0.440000022972 4.0 0.0
0.419999940378 4.0 0.0
0.399999979352 4.0 0.0
0.380000048063 4.0 0.0
0.359999968347 4.0 0.0
0.339999967553 4.0 0.0
0.320000050328 4.0 0.0
0.299999987077 4.0 0.0
0.279999949312 4.0 0.0
0.260000032129 4.0 0.0
0.240000033752 4.0 0.0
0.219999953776 4.0 0.0
0.200000005737 4.0 0.0
0.180000060031 4.0 0.0
0.159999976465 4.0 0.0
0.139999980354 4.0 0.0
0.120000064926 4.0 0.0
0.100000018697 4.0 0.0
0.0799999610675 4.0 0.0
0.0600000440571 4.0 0.0
0.0400000402596 4.0 0.0
0.0199999611169 4.0 0.0
0.0 3.97976750927 0.0
0.0 3.9574882542 0.0
0.0 3.93295517223 0.0
0.0 3.90594026646 0.0
0.0 3.87619247056 0.0
0.0 3.84343531161 0.0
0.0 3.80736436348 0.0
0.0 3.76764438299 0.0
0.0 3.72390623714 0.0
0.0 3.67574343203 0.0
0.0 3.6227083524 0.0
0.0 3.56430812579 0.0
0.249757963562 3.75212589829 0.0
1.94999996706 3.74954522137 0.0
0.488710285893 3.75947702441 0.0
0.726520490699 3.7655965719 0.0
0.967283134849 3.7597072979 0.0
1.20619032017 3.75831098673 0.0
1.45842774915 3.76733088374 0.0
1.69012076678 3.7622332834 0.0
0.130754044069 3.86878249167 0.0
2.06924595593 3.86878249167 0.0
1.8299999918 3.84622455633 0.0
1.56816462369 3.85034872999 0.0
0.369913859351 3.84868157925 0.0
0.608733620231 3.84706187144 0.0
1.33069778866 3.84790908234 0.0
0.84323446252 3.84762979148 0.0
1.08873170817 3.84705870913 0.0
0.250539365135 3.87785524304 0.0
1.94967747948 3.87849609822 0.0
1.73218750075 3.8916046151 0.0
0.468661874066 3.89189322974 0.0
1.47574192429 3.89639134117 0.0
0.704258110321 3.8963912684 0.0
1.18331258449 3.8976320365 0.0
0.949999953744 3.89208018478 0.0
1.64795374468 3.91749779939 0.0
0.548928463645 3.91905583847 0.0
1.38619509199 3.91928594438 0.0
0.788926872841 3.91906062101 0.0
1.27071160784 3.91777932845 0.0
1.02999997296 3.91685174433 0.0
1.81733541416 3.69950870754 0.0
1.86999999106 3.91823503401 0.0
0.071252620538 3.93011431841 0.0
2.12874737946 3.93011431841 0.0
2.07400690796 3.74293885365 0.0
0.125993092043 3.74293885365 0.0
0.32995676804 3.92118147353 0.0
2.00999996712 3.92542383197 0.0
0.190000032884 3.92542383197 0.0
1.56698738743 3.72218882919 0.0
1.33000000474 3.72531695685 0.0
0.848014510843 3.71986098938 0.0
1.09024665585 3.72285801424 0.0
0.610276609989 3.72290563624 0.0
1.54999998543 3.92414142844 0.0
0.629999973146 3.92414137652 0.0
0.869999974031 3.92414141814 0.0
1.11000003579 3.92414141267 0.0
1.79030638642 3.92649353654 0.0
0.370434802927 3.72513294336 0.0
0.410903135411 3.92892991244 0.0
1.33000002597 3.93737911571 0.0
0.129927648482 3.94112154503 0.0
2.07007235152 3.94112154503 0.0
1.93000000928 3.93875927586 0.0
0.26999999072 3.93875927586 0.0
1.40966706061 3.83880068991 0.0
0.770332962441 3.83880062149 0.0
1.24904900022 3.84293377683 0.0
1.01033287484 3.83880060723 0.0
0.530342681434 3.83880307444 0.0
0.189895273961 3.63486992823 0.0
2.00989835291 3.62845703161 0.0
0.998888153878 3.61665036233 0.0
1.47894673873 3.61675180774 0.0
0.51733910646 3.62937665489 0.0
0.705112628302 3.618743723 0.0
1.66672137035 3.63168728155 0.0
1.18508242495 3.61871739348 0.0
1.71000003443 3.94408608591 0.0
0.489999965568 3.94463856597 0.0
1.44983363802 3.94422347836 0.0
0.729999997105 3.94465012565 0.0
1.21016639734 3.94422345842 0.0
0.928621800545 3.94440037102 0.0
2.00626203014 3.81543543551 0.0
0.193627962274 3.81528928332 0.0
1.66628164144 3.83559795895 0.0
1.75661718781 3.81065958113 0.0
1.61143779865 3.94859227761 0.0
0.991673865748 3.95161238438 0.0
0.0604617941233 3.86281264864 0.0
2.13953820588 3.86281264865 0.0
0.300965570716 3.8114148258 0.0
0.2970894797 3.66361086085 0.0
0.398842167194 3.60449226805 0.0
1.51000004877 3.95218393067 0.0
1.90135619383 3.81213273629 0.0
0.669405272842 3.95495208979 0.0
1.07142780558 3.94866325309 0.0
0.592085094025 3.94901139323 0.0
0.831051660929 3.94633985879 0.0
1.14940528892 3.9549521224 0.0
0.44409344258 3.82719938178 0.0
1.49646539728 3.82376850413 0.0
0.683434082651 3.82631713605 0.0
0.92337834777 3.8234861632 0.0
1.16343437877 3.82631615351 0.0
1.90749084149 3.65350700271 0.0
1.8278758005 3.95083911942 0.0
0.37243073327 3.95235211027 0.0
1.29345662549 3.60569899261 0.0
0.813407949226 3.60572380122 0.0
1.29317153636 3.96216077293 0.0
1.367704599 3.96055764734 0.0
1.97071235041 3.96038324024 0.0
0.22928764959 3.96038324024 0.0
2.10610581798 3.66047411138 0.0
0.0938941820177 3.66047411138 0.0
1.67000000105 3.95862953468 0.0
1.74869816704 3.96079301687 0.0
0.531976761939 3.96138655466 0.0
0.451361042387 3.96112774725 0.0
0.771976832233 3.96138887156 0.0
1.88843481911 3.95881554986 0.0
1.61277513709 3.78538823015 0.0
2.13311214501 3.79435403671 0.0
0.0668878549946 3.79435403671 0.0
1.76678797151 3.60286552601 0.0
0.311702446283 3.9611157379 0.0
1.02877762737 3.96159282031 0.0
1.40830122607 3.96143175203 0.0
1.25214210333 3.957355862 0.0
1.59476493393 3.9048774062 0.0
1.56950979124 3.96148017208 0.0
0.890017020275 3.96125792969 0.0
2.03089110475 3.96040268709 0.0
0.169108895255 3.96040268709 0.0
0.939722125942 3.68539157065 0.0
1.41686981874 3.69192854313 0.0
0.0426348006718 3.96101756902 0.0
2.15736519933 3.96101756902 0.0
1.36077308019 3.79177204211 0.0
0.817982383499 3.78962669257 0.0
1.05834720932 3.78780184893 0.0
0.578349529346 3.78781530011 0.0
1.77992711518 3.87652731382 0.0
0.417982153133 3.87594990465 0.0
1.84363633012 3.77741329286 0.0
1.52244994479 3.87704541475 0.0
0.657426528912 3.87734838249 0.0
1.13742651778 3.87734834025 0.0
0.898116026439 3.8800466833 0.0
1.56984259435 3.64465823131 0.0
1.08983016076 3.6446495206 0.0
0.609942357805 3.64483976081 0.0
1.29451769374 3.79627773068 0.0
0.0893439668432 3.96574839433 0.0
2.11065603316 3.96574839433 0.0
2.01422398896 3.86980625824 0.0
0.185776011038 3.86980625824 0.0
0.305957237756 3.87340573745 0.0
1.72977480551 3.68665973332 0.0
1.25418096296 3.69351129461 0.0
0.629999973146 3.96272981435 0.0
1.11000003579 3.96272983221 0.0
0.772975283819 3.69297597031 0.0
1.89089074715 3.86951346173 0.0
0.445448577516 3.69456159386 0.0
1.82621986864 3.89678318705 0.0
2.07135424223 3.81165410377 0.0
0.128645757768 3.81165410377 0.0
0.373320289473 3.89968791662 0.0
1.79000004014 3.96541718891 0.0
0.383302070088 3.78976392323 0.0
0.409457623385 3.96502881851 0.0
1.55531527123 3.78787141386 0.0
1.34861332978 3.89383287415 0.0
0.593245985735 3.89483466551 0.0
0.833245353375 3.89479604398 0.0
1.0732444554 3.8948349405 0.0
0.911896623122 3.59194725763 0.0
0.187580554011 3.70699710313 0.0
2.01241944599 3.70699710313 0.0
1.39201907571 3.59233063354 0.0
2.09635520798 3.90516200201 0.0
0.103644792024 3.90516200201 0.0
1.89086147526 3.72621461413 0.0
1.02102684616 3.70044819701 0.0
1.49813234221 3.70194667869 0.0
0.53965669049 3.70593418829 0.0
1.63719578665 3.69772473547 0.0
0.685447658936 3.70127585046 0.0
1.16541741817 3.70128744764 0.0
0.901649266036 3.76287226775 0.0
0.992351690321 3.90662993531 0.0
1.69131894868 3.90657323657 0.0
1.9699561555 3.91599371502 0.0
0.230043844497 3.91599371502 0.0
1.61980840676 3.85005402918 0.0
2.04685187594 3.90639759008 0.0
0.153148124058 3.90639759008 0.0
0.512139828486 3.90538520837 0.0
1.43057458921 3.90702644399 0.0
0.749149996349 3.90689574876 0.0
[...]
POINT_DATA 1163
VECTORS Displacement float
0.0 0.0 0
0.0 0.0 0
0.00123635911928 0.000162329356452 0
-0.00118433975774 -0.000168244306825 0
0.0 0.0 0
0.0 0.0 0
0.0 0.0 0
0.0 0.0 0
0.0 0.0 0
0.0 0.0 0
0.0 0.0 0
0.0 0.0 0
0.0 0.0 0
0.0 0.0 0
0.0 0.0 0
0.0 0.0 0
0.0 0.0 0
0.0 0.0 0
0.0 0.0 0
0.0 0.0 0
0.0 0.0 0
0.0 0.0 0
0.0 0.0 0
0.0 0.0 0
0.0 0.0 0
0.0 0.0 0
0.0 0.0 0
0.0 0.0 0
0.0 0.0 0
0.0 0.0 0
0.0 0.0 0
0.0 0.0 0
0.0 0.0 0
0.0 0.0 0
0.0 0.0 0
0.000492770879341 -0.000298640741864 0
0.000874328888061 -0.000331343612424 0
0.00114941468746 -0.000265015260557 0
0.00129792448702 -0.000159924333649 0
0.00136624062968 -5.98265671414e-05 0
0.00138067486323 2.5191892658e-05 0
0.00136182271818 8.60882012998e-05 0
0.00133498513689 0.000126603449736 0
0.00130435416918 0.000149989863936 0
0.00127796899431 0.000159189039006 0
0.00125885410876 0.000162511121811 0
0.00124581322041 0.000162620436849 0
0.00123664816194 0.000153140837124 0
0.00123701842582 0.000146331671596 0
0.00123551661166 0.000142871821484 0
0.00123093766451 0.000142857824625 0
0.00122188828486 0.000145783398685 0
0.00120718800901 0.0001492510667 0
0.00118586058256 0.000154573190845 0
0.001157578504 0.000156351983017 0
0.00112106788198 0.000157535407822 0
0.00107755617832 0.000152205906886 0
0.00102298208953 0.000142179126198 0
0.000959945663696 0.000123376827682 0
0.000888218263481 9.31554361074e-05 0
0.000804178262475 5.39019777997e-05 0
0.00071130625106 -1.83743758799e-06 0
0.000603193012421 -7.1234789996e-05 0
0.000485718117999 -0.000161800629406 0
0.000352591411266 -0.000270805471329 0
0.000208196131519 -0.000407733073169 0
4.3229529502e-05 -0.00057202679129 0
-0.000134322572999 -0.000769549688165 0
-0.000320725858407 -0.00100597965895 0
-0.000531220710727 -0.00127565980377 0
-0.000755232640193 -0.00159884453078 0
-0.00100571536231 -0.00197145987569 0
-0.00126269242311 -0.0024068263132 0
-0.00155045508993 -0.00290556414642 0
-0.00185400490018 -0.0034876754793 0
-0.00217847407636 -0.004152760857 0
-0.00250076775499 -0.00491408572933 0
-0.00284281400333 -0.00579909504744 0
-0.00322915965421 -0.00679924183031 0
-0.00360551265437 -0.00794849011162 0
-0.00400272212273 -0.00927376805242 0
-0.00439347355647 -0.0108037387965 0
-0.00479186013028 -0.0125734068278 0
-0.00518214116818 -0.0146431581309 0
-0.00557098801071 -0.0171668094237 0
-0.00578787579806 -0.0201119559045 0
-0.00545268699944 -0.0251299652878 0
-0.00485989009421 -0.0295647396002 0
-0.00417711634832 -0.0335030769186 0
-0.00353324179969 -0.0369678875599 0
-0.0028423093348 -0.039945157813 0
-0.00225468614066 -0.0424748860523 0
-0.00170484664206 -0.0445463845525 0
-0.00120768933213 -0.0461562740074 0
-0.000715384391899 -0.0473075054065 0
-0.000288513743839 -0.0480009376868 0
0.000133580594831 -0.0482339589756 0
0.000488635992358 -0.0480098279407 0
0.000915861925989 -0.0473180368639 0
0.001393737714 -0.0461706740742 0
0.0019073844868 -0.0445677804235 0
0.00243949383412 -0.0424981097325 0
0.00307036764606 -0.0399840601325 0
0.00372386597847 -0.0369942754415 0
0.00435535835054 -0.0335383409537 0
0.00506597191845 -0.0296062766114 0
0.0056112090432 -0.0251659731179 0
0.00595454119888 -0.0201621818516 0
0.00572611787112 -0.0171661040051 0
0.00537951297938 -0.0146704023211 0
0.00496650194291 -0.0125670424062 0
0.00458894471595 -0.0107946731471 0
0.0041804567641 -0.009269447382 0
0.00380810434891 -0.00793452939427 0
0.00342246327852 -0.00677369474232 0
0.00305380969168 -0.00577132625732 0
0.00270339157216 -0.00489715864435 0
0.00236861913977 -0.00412789179998 0
0.00204819910411 -0.0034619140716 0
0.00176019604236 -0.00287857609316 0
0.00147880930383 -0.00237375511273 0
0.00122026219444 -0.00193389843836 0
0.000979844198495 -0.00155759001434 0
0.000756213740602 -0.00123196641277 0
0.000550778258294 -0.00095318328891 0
0.00036649551473 -0.000711345431854 0
0.000191821069769 -0.000508014219872 0
3.6200729624e-05 -0.000335053364082 0
-0.000109216429018 -0.000194606263846 0
-0.000236631594491 -7.58879888695e-05 0
-0.000354684810176 2.06003347761e-05 0
-0.000458793154939 0.000100207095803 0
-0.000555030015159 0.000160634593171 0
-0.000638750591896 0.000209354859262 0
-0.000714182460969 0.000242156150177 0
-0.00077932981943 0.000267757928488 0
-0.000839254301726 0.000282358211513 0
-0.000892354853936 0.000288936602333 0
-0.000937563211456 0.00028948184993 0
-0.000978292451664 0.000282976404702 0
-0.00101283206267 0.000272396329529 0
-0.00104390301863 0.000256907618935 0
-0.00106999166981 0.000238509441206 0
-0.00109292319703 0.000216246360391 0
-0.00111221435547 0.000192334452226 0
-0.00112879584608 0.000165695461999 0
-0.00114299492479 0.000137184654171 0
-0.00115420989316 0.000107717231037 0
-0.00116357621358 7.67229390357e-05 0
-0.0011708566338 4.56657255179e-05 0
-0.00117638691469 1.36897086888e-05 0
-0.00118025368405 -1.78791889733e-05 0
-0.00118269850658 -4.94057932437e-05 0
-0.00118399376627 -8.02900438337e-05 0
-0.00118446109725 -0.000110363740718 0
-0.00118440864549 -0.000139618732762 0
-0.00115544076369 -0.000168175280823 0
-0.00112430292974 -0.000168268421164 0
-0.00109118091719 -0.000169250830293 0
-0.00105584860454 -0.000171846336768 0
-0.00101692640642 -0.000178161531255 0
-0.000971350937657 -0.000188711938225 0
-0.000917359741795 -0.000203816206745 0
-0.00084623455905 -0.000223841603967 0
-0.000751806204498 -0.000244110015379 0
-0.000624713257605 -0.000257599345176 0
-0.000452047660972 -0.000247948272243 0
-0.00024574372969 -0.000188047583411 0
-0.000964384032643 0.000138762820679 0
0.00173320153361 4.88297274083e-05 0
-0.00165175392463 5.18028357315e-05 0
-0.0032755872699 -0.00222594515606 0
-0.0049189238718 -0.0116761541201 0
0.000272547426399 -0.0203352001266 0
0.00508307341659 -0.0105475724457 0
0.00330246642486 -0.00189852079402 0
-0.00101716741443 3.00661451263e-05 0
0.00137189956746 0.000154842482313 0
0.00173920458871 -0.00024303468872 0
0.00316986879659 -0.00596354761602 0
-0.00114012231322 0.000298383826334 0
-0.00164740075195 -0.000481610892893 0
0.00363703197309 -0.0243535930496 0
-0.00320797290257 -0.00650242257316 0
-0.00310501454039 -0.0257136206251 0
-0.00104444740439 0.000214178784031 0
0.0013719893459 0.000166281528518 0
0.00135789049993 -0.00121939928592 0
-0.00106635134248 0.000250339509426 0
0.00270855506198 -0.0125185756138 0
-0.00112105716203 -0.00183185080266 0
-0.000306698723876 -0.0354208237834 0
-0.00301112703 -0.014960272422 0
0.000804867966636 -0.00304425188043 0
-0.000828925587288 -2.70399384488e-05 0
0.00249333452817 -0.0237336576585 0
-0.0005943573811 -0.00424879051424 0
0.00136572761967 -0.0357630590369 0
-0.00243625835211 -0.0257600651101 0
0.00238043088627 -0.000458288228647 0
0.00109174996202 -2.0447984261e-05 0
-0.00108744449509 -6.3012658619e-05 0
0.00128022473893 0.000141949683593 0
0.00143856195368 5.46976270377e-05 0
-0.000825737075124 -9.47035097059e-06 0
-0.0010217944669 0.000303855368072 0
0.00122549795296 0.000191107238489 0
-0.00106817144971 0.000131138881897 0
0.00450880807044 -0.00467709248015 0
0.00357055736007 -0.0145835528475 0
-0.00452238997704 -0.00514891286664 0
-0.00297955638703 -0.0150906165642 0
-0.00244586852132 -0.000619169963924 0
0.000717798014128 -0.00713156535612 0
-0.000631968118532 -0.000688262351368 0
-0.00064931063286 -0.00836437046457 0
-0.00130481330466 -0.035147482663 0
0.000856307591998 -0.000533865067932 0
-0.00120209657897 0.000145031400875 0
-0.000949171128188 0.000318630285398 0
0.00139358041718 -0.0325251267166 0
-0.00109493268487 3.31051358471e-05 0
0.0012414505471 0.000165988806334 0
0.00106917961742 0.000134537184996 0
-0.00104736913183 0.000243436597719 0
0.00459287077497 -0.0169669279488 0
-0.0027081894233 -0.00352560668881 0
0.00161173846459 -0.0283452996056 0
-0.00437771996933 -0.0187163471396 0
-0.00146937829819 1.92455764586e-05 0
-0.000569524065218 1.34801123867e-05 0
0.00114110461896 -2.68298439692e-05 0
-0.00313305657669 -0.00575945362735 0
0.0035343525134 -0.00426003529002 0
-0.00150338050939 -0.000188292571311 0
-0.00260647080679 -0.00117985055227 0
0.00300822124315 -0.00154650568233 0
-0.000290154868372 -0.00819273960701 0
0.000283431795171 -0.00162507147644 0
-0.000755834106487 0.00019376815044 0
0.000333027537971 -0.0157068346975 0
0.00011381518972 -0.00245996615214 0
0.00018485422466 -0.041175324484 0
0.000100268603077 -0.0132894614083 0
0.00151815105678 0.00015095729631 0
-0.000981197609978 0.000113952412275 0
0.00266274461865 -0.00251002516849 0
0.00239150390236 -0.000925888591994 0
-0.000306198473451 -0.00429061869308 0
-0.000229115637328 -0.0218588219939 0
-0.00100336249649 -8.79848421377e-05 0
0.00136462777598 0.000107846283596 0
-0.00108332373141 0.000230481567018 0
-0.00085362973565 6.96160647172e-05 0
-0.00086035144515 -3.02834472918e-05 0
-0.000708530011334 -0.00986778066067 0
0.00175397165989 2.79229291938e-05 0
4.5152438429e-05 -0.00125942833214 0
-0.000631332762713 -0.0338342994636 0
-0.000406547183081 -0.000338629784063 0
0.00053827698289 -0.00612981885585 0
-9.11452228837e-05 -0.0413002538161 0
-0.00131510183067 0.000241698731938 0
0.00445574928867 -0.00975673961126 0
-0.00228103208242 -0.00145590321589 0
-0.00447274522765 -0.0110812739452 0
-0.00110961563255 -0.0269493415093 0
0.00166666689951 -0.000136086167006 0
0.000692097963165 -0.000260805209506 0
-0.000947203094115 0.000318422287598 0
0.00170850390555 -0.00671358457921 0
-0.00306109398079 -0.00220501896158 0
5.92211536319e-05 -0.0390645120608 0
-5.22283592094e-05 -0.029206247954 0
0.0010732138504 0.000168131243443 0
-0.00108097138133 0.000187017799504 0
0.00113981763297 -3.89789191471e-05 0
-0.0005886617662 -6.45315870802e-05 0
-0.000300494960843 -0.00250280128966 0
0.000170630264655 -0.00104355311318 0
-0.000523524945464 2.74954960697e-05 0
-0.00077758510252 0.000264754640316 0
0.00088329271365 -0.00369918418146 0
0.000851809927766 1.99960862688e-05 0
0.00385995334479 -0.00387378236684 0
0.00141891812113 5.01589522628e-05 0
-0.000905063737817 -9.1095949321e-05 0
0.00198524258502 -0.000612252542709 0
-0.00101512387729 0.000282839548266 0
0.000295779419574 -0.0287277407503 0
-0.000396484388599 -0.0221369186758 0
0.000245587929649 -0.0415444938382 0
0.00132628583634 -0.00488585094504 0
-0.00108794383001 -0.00613662740774 0
0.00150451461389 -0.00984838460101 0
0.00117613174648 0.000177142882134 0
-0.00110783119047 9.59813353261e-05 0
-0.00451366148753 -0.00736872782814 0
0.00447843921803 -0.00918955128328 0
-0.0011288150331 -0.000106539614246 0
0.00125510887885 0.000145196762422 0
0.00440532062527 -0.0178995519115 0
-0.00394561836453 -0.00497386861388 0
-0.00395254420279 -0.0187685054091 0
-0.00200298493401 -0.000304937380546 0
0.00152564920323 -0.000628661114307 0
-0.00111453304584 0.000306401322941 0
0.00213823877682 -0.000240430336198 0
0.00285338658612 -0.00872681356442 0
-0.00138144741378 -0.00103582689992 0
-0.0016192268028 -0.0316225070167 0
-0.00283587727903 -0.0101683783128 0
0.00382850348201 -0.00321975581501 0
-0.00234114548719 -0.00923837211951 0
-0.00217167253998 -0.000575875365883 0
0.00299604868851 -0.0219642353894 0
-0.00113197686931 -3.36051778043e-05 0
0.00123905059074 0.000148118529862 0
0.00138421306144 0.000183313433234 0
-0.0010264783271 0.00011912050502 0
-0.00106299360826 0.000275538738172 0
0.00301001453657 -0.00116002571659 0
0.00152003861006 -0.0140016237141 0
-4.7831922786e-05 -0.000737167800793 0
0.000133985177469 -0.0394328514949 0
-0.00382599141774 -0.00275711043677 0
0.0014541805748 4.99901170952e-05 0
-0.00144002666886 3.2060623001e-05 0
0.00125003159458 -0.000242026796681 0
0.0014525154226 0.000119555989454 0
-0.000946615358119 1.54881250401e-05 0
-0.00103931566456 0.00032350624567 0
0.000352066457083 -0.000585711630132 0
-0.00124320747514 0.000236644105511 0
-0.000863331376654 0.000305129961013 0
0.00438442150056 -0.00604844120193 0
0.0031479996717 -0.0265870620404 0
-0.00105947776218 -0.000320620999957 0
-0.00166506533236 -0.00616175407506 0
-0.00266835081371 -0.0289094443088 0
-0.00295784628792 -0.00322078073096 0
-0.000790367625803 4.90172024076e-05 0
0.00148875213129 4.00514133144e-05 0
0.00263231789678 -0.00463670403663 0
0.00130885095402 0.000150682981931 0
-0.00105645028413 -1.10652994651e-05 0
0.00198069177953 -0.000112824652313 0
-0.00407168886576 -0.0110978071006 0
0.00477257689982 -0.00660139387597 0
-0.00195472800879 -0.000202470965007 0
0.00386120561174 -0.00260645425842 0
-0.00305465395832 -0.00138105535211 0
-0.000929091941553 -0.0148501976739 0
-0.00484914366288 -0.00830474926289 0
-0.00278192535249 -0.0203003715839 0
0.00108614005862 -0.0019634938055 0
0.00122179938946 0.000183971497793 0
-0.00105500432682 0.000190710426146 0
0.00271574047106 -0.00388900110477 0
0.00129296030712 0.000177797723557 0
-0.00105579223719 7.08082216672e-05 0
-0.000974858312654 0.000134508361831 0
0.00276547269398 -0.0174619533329 0
-0.000933282983183 -0.00292742521186 0
0.000650358522384 -0.0367577533338 0
0.00134581672325 -2.9552083306e-05 0
-0.000765912876534 -0.000110531030068 0
0.00167174579368 -0.0167701488843 0
-0.00105030004839 -0.000113656935559 0
0.00131586935569 0.000127209597257 0
-0.00173525169396 -0.0126800379106 0
0.000504817104319 -0.00186968437366 0
0.000129582224455 -0.0438766478536 0
-0.00102850987565 0.000188413375789 0
-0.00108181050614 0.000177646590718 0
0.00239269312886 -0.0296869389776 0
0.001571359754 0.000139853657956 0
-0.000245296462172 -0.0352479259857 0
0.0027366986315 -0.000857141575292 0
-0.00247913327146 -0.0207958270666 0
-0.00244252412988 -0.000851401857473 0
0.000869126986633 -0.0121618349607 0
-0.000358313242652 -0.00172013190458 0
-0.00022581576563 -0.0392909954126 0
-0.00079555148144 -0.00342363397929 0
-0.0043755977548 -0.00749751449505 0
0.00131267291599 -0.000242115481917 0
0.000955928012822 0.000115051935965 0
-0.00105565493439 0.000238721439958 0
-0.000363124427161 -0.000131718850998 0
0.00128849056366 -0.00467951883688 0
-0.00145832783261 -0.00770868642855 0
0.00165623875472 -0.00788135198391 0
0.000690687447438 -9.35391969102e-05 0
0.00121228408579 0.000162061184089 0
-0.00112501475299 3.25878076534e-05 0
-0.0009819754922 0.000298157412514 0
0.00223480365769 -0.00143393674112 0
0.00111159132351 0.000174217905708 0
-0.00110243181343 0.000145783785296 0
-0.00132201375585 0.000190593646043 0
0.0043826584389 -0.0131004325887 0
-0.00222783161778 -0.00222656508527 0
4.69571063425e-05 -0.0289608882259 0
-0.00434748317885 -0.0148019250876 0
0.00100264973385 -0.000111797765323 0
-0.000419568032701 -2.14058812659e-06 0
0.000918731068819 -0.000965294909573 0
-0.00131655887274 -0.0172404209185 0
-0.000950500422456 0.000285687630981 0
0.00220339137404 -0.0319246166747 0
-0.00216807481309 -0.00454679314174 0
-0.00364819172759 -0.0234145772483 0
-0.00127743289653 -8.844389682e-05 0
-0.000302923851512 -2.45865149724e-05 0
0.000653629848871 -4.02763062753e-05 0
-0.000539878792595 -1.38549668494e-05 0
0.00120895287939 9.16408615231e-05 0
-0.00104289482282 0.000272992515463 0
0.00492315457821 -0.0080438293387 0
0.00396540159838 -0.0212963926086 0
-0.00160157479606 -0.0112118903968 0
-0.00142128098468 0.00013999591473 0
0.00121121710775 -0.00919025193976 0
-0.000688653452688 -0.0011464658548 0
-0.000912287253943 -0.0365386454937 0
0.00140771731371 0.000114322254171 0
-0.000975255526547 -2.72527265352e-05 0
-0.00024851306765 -0.00168439927177 0
0.000248870957515 -0.00576531330195 0
0.00152723232919 0.000105969992534 0
-0.000906243882099 6.24953303043e-05 0
-0.000631018609263 0.000171810162668 0
-0.00155714952066 -0.0152979962085 0
0.000676841810435 -0.00240162125258 0
0.00203789711505 -0.0137618661903 0
9.59290068085e-05 -0.043980682205 0
0.00208718616845 -0.018229960947 0
0.00190606451744 -0.00258448821465 0
0.00139444434852 5.84695122625e-05 0
-0.000943020630483 -0.00013102537987 0
0.00457889903594 -0.0123180749997 0
0.00192327448633 -0.00110413275056 0
0.00221571090419 -0.000478451724149 0
-0.000789553594124 -0.00387362653417 0
0.00311942342068 -0.00978925283138 0
-0.00139531367734 -0.000506032316512 0
-0.00412658361259 -0.00415174395574 0
-0.000814556258397 7.71790154361e-05 0
-0.00394973169238 -0.00347474154054 0
-0.00114397717737 0.000262324763148 0
0.00219785973909 -0.00615512513641 0
-0.000830300318112 -9.53341624184e-05 0
-0.000321824429575 -0.000100088066545 0
0.000659394607833 -0.000121969806179 0
0.00124571761666 0.000144143172082 0
-0.0011388704862 -7.29264523607e-05 0
0.00138596690784 -6.23655806309e-05 0
0.000523772049533 -0.00498644307142 0
-0.0021229438628 -0.00112943044391 0
-0.00108719840479 -0.000125566752017 0
0.0012828888218 0.000141326091231 0
-0.00116946930299 -0.000245999862428 0
0.00164157956562 -4.55816673541e-05 0
-0.00104520131352 6.22543977704e-05 0
-0.00199505691905 -0.00419105799965 0
0.00261219163986 -0.00236323450858 0
-0.0017538942718 -2.95174264169e-05 0
-0.00106732093775 0.000297642668758 0
0.00501852891757 -0.0132288393952 0
-0.00468969494348 -0.0154089596466 0
-0.00139519817155 -0.00446634402751 0
0.00206146628781 -0.0222988635862 0
0.00230516245751 -0.0279553697908 0
0.00143565845229 0.000161119384401 0
-0.000994761177256 7.39365398125e-05 0
0.00172565739189 -0.000675035781389 0
0.00165588336695 -0.0226904227953 0
0.00153644568215 -0.0332738412928 0
-0.00347286165849 -0.0031080715183 0
-0.0030677497941 -0.00481475607485 0
-0.00395744882013 -0.0221639187516 0
-0.00152589351721 -0.000144746562508 0
0.00439553160138 -0.020299724753 0
-0.00204347530697 -0.0260595159708 0
-0.000457076503879 -0.0428622013283 0
0.00195150923337 -0.000315989926252 0
0.00126514049159 0.000153220698953 0
-0.00109120214062 -1.53338762841e-05 0
-5.83033002914e-05 -0.000500533684189 0
0.000264432015544 -0.00106489027356 0
0.000618674164199 -0.0378292512445 0
0.000449338259104 -0.0425504229306 0
-0.000723502612763 -1.23688151783e-05 0
0.00135329974728 2.13821841553e-05 0
0.00285235421489 -0.00181802766331 0
0.00131158468926 0.000135508162791 0
-0.00105570816446 -6.26296842485e-05 0
0.00171318779162 -2.95774499645e-05 0
-0.00276160865769 -0.00993641226727 0
0.0023630665841 -0.00617047561145 0
-0.00278865905811 -0.00144032940368 0
-0.00117455879467 -0.022012650099 0
0.000402014232307 -0.000397063431154 0
0.00166195588557 -0.0311031706685 0
-0.000896836740919 0.00030740699373 0
-0.00114504161434 -0.000129709916336 0
0.00124929542669 0.000150031230831 0
-0.00207227637123 -0.00798953482882 0
-0.00217103949397 -0.0312181354587 0
-0.00113390612033 -0.000635403221414 0
-0.00102928564307 0.000169174509813 0
0.00194968037043 -6.01886558442e-05 0
0.00140782476399 0.00018053051308 0
0.00123666645687 0.000178820404631 0
-0.00108252069977 7.47160507105e-05 0
0.000970663646544 -0.000143899532895 0
6.79684685896e-05 -0.00081505385642 0
-0.000788422091006 0.000278842605579 0
0.00335131744344 -0.0026850860535 0
0.0038022725385 -0.00776952246112 0
-0.00192469794403 -0.000889605242567 0
-0.00400256618917 -0.00898359621289 0
-0.00224754274768 -0.0267113448504 0
-0.00121056530205 0.000285582396083 0
-0.00400081218228 -0.0183010836235 0
-0.00150424950985 0.00014190375854 0
0.0040725666457 -0.0163045935451 0
-0.00123118929876 0.000130751418902 0
-0.001900468579 -0.00294474029671 0
0.00129500367852 0.000192531166161 0
0.00490867815116 -0.0117265241296 0
-0.00104837505269 0.000152111746941 0
-0.00286817259772 -0.00215973358819 0
-0.00481923491836 -0.0130962190981 0
7.90612164275e-05 -0.0247924730022 0
0.000749984284046 -0.00396410713689 0
0.00169687185116 -0.00350162984017 0
-0.000730590958105 -0.000189742001267 0
-0.000441559613379 -0.00532960961103 0
-0.00203690634931 -0.029781035288 0
-0.00144866063908 -0.0335953999421 0
-0.000984697735024 -0.0390028116804 0
0.00367729939437 -0.0109275262618 0
-0.00172405017058 -0.00156956905426 0
-0.000827051991314 -0.0314243391821 0
-0.00369022768465 -0.0127732816609 0
0.000966586759645 0.000131677837796 0
-0.00108099815434 0.000212226751159 0
-0.000996040962226 0.000318780206264 0
0.00377689238868 -0.00273547761795 0
0.00137780954067 -0.0191893429771 0
0.000524768456966 -0.0395627889195 0
0.00179997529811 -0.000999379978238 0
0.000835569938772 6.02718088709e-05 0