# vtk DataFile Version 2.0
Generated with Solid Solver
ASCII
DATASET UNSTRUCTURED_GRID
POINTS 999 float 
0.2 4.325 0.0
1.4 4.325 0.0
1.4 4.825 0.0
0.2 4.825 0.0
1.4 4.34523264049 0.0
1.4 4.36751203886 0.0
1.4 4.39204525371 0.0
1.4 4.4190602782 0.0
1.4 4.44880817466 0.0
1.4 4.48156541084 0.0
1.4 4.51763640748 0.0
1.4 4.5573564007 0.0
1.4 4.60109451608 0.0
1.4 4.64925723872 0.0
1.4 4.70229217343 0.0
1.4 4.76069218095 0.0
1.33333333333 4.825 0.0
1.26666666667 4.825 0.0
1.2 4.825 0.0
1.13333333333 4.825 0.0
1.06666666667 4.825 0.0
1.0 4.825 0.0
0.933333333334 4.825 0.0
0.866666666668 4.825 0.0
0.800000000001 4.825 0.0
0.733333333334 4.825 0.0
0.666666666668 4.825 0.0
0.600000000001 4.825 0.0
0.533333333334 4.825 0.0
0.466666666667 4.825 0.0
0.4 4.825 0.0
0.333333333334 4.825 0.0
0.266666666667 4.825 0.0
0.2 4.76069218095 0.0
0.2 4.70229217343 0.0
0.2 4.64925723872 0.0
0.2 4.60109451608 0.0
0.2 4.5573564007 0.0
0.2 4.51763640748 0.0
0.2 4.48156541084 0.0
0.2 4.44880817466 0.0
0.2 4.4190602782 0.0
0.2 4.39204525371 0.0
0.2 4.36751203886 0.0
0.2 4.34523264049 0.0
0.212131543907 4.30926329506 0.0
0.224675715302 4.29385348652 0.0
0.23762369102 4.27878141198 0.0
0.250966423879 4.26405760374 0.0
0.264694484585 4.24969246611 0.0
0.278798324214 4.23569599189 0.0
0.293267939266 4.22207810803 0.0
0.308093289028 4.20884826442 0.0
0.323263842145 4.19601585877 0.0
0.338769084145 4.18358978512 0.0
0.354597997314 4.17157887342 0.0
0.37073960121 4.15999145532 0.0
0.387182441982 4.14883575334 0.0
0.403915091795 4.13811952025 0.0
0.420925712897 4.12785033813 0.0
0.438202430937 4.11803537461 0.0
0.455733079095 4.10868154223 0.0
0.473505374364 4.09979539439 0.0
0.491506842655 4.09138316882 0.0
0.509724826085 4.0834507802 0.0
0.528146580414 4.07600377808 0.0
0.546759103951 4.06904741762 0.0
0.56554943677 4.06258654322 0.0
0.584504260001 4.05662573401 0.0
0.60361041518 4.0511691282 0.0
0.622854334779 4.04622060039 0.0
0.642222678753 4.04178358113 0.0
0.661701681839 4.03786122392 0.0
0.681277836375 4.03445624851 0.0
0.700937245817 4.03157107217 0.0
0.720666255912 4.02920769845 0.0
0.740450894784 4.02736780161 0.0
0.76027736978 4.02605266363 0.0
0.780131702711 4.02526321235 0.0
0.799999999998 4.025 0.0
0.819868297285 4.02526321235 0.0
0.839722630216 4.02605266363 0.0
0.859549105212 4.02736780161 0.0
0.879333744085 4.02920769845 0.0
0.89906275418 4.03157107217 0.0
0.918722163621 4.03445624851 0.0
0.938298318157 4.03786122392 0.0
0.957777321244 4.04178358113 0.0
0.977145665218 4.04622060039 0.0
0.996389584817 4.0511691282 0.0
1.01549574 4.05662573401 0.0
1.03445056323 4.06258654322 0.0
1.05324089605 4.06904741762 0.0
1.07185341958 4.07600377808 0.0
1.09027517391 4.0834507802 0.0
1.10849315734 4.09138316882 0.0
1.12649462563 4.09979539439 0.0
1.1442669209 4.10868154222 0.0
1.16179756906 4.1180353746 0.0
1.1790742871 4.12785033813 0.0
1.1960849082 4.13811952024 0.0
1.21281755802 4.14883575334 0.0
1.22926039879 4.15999145532 0.0
1.24540200269 4.17157887342 0.0
1.26123091585 4.18358978512 0.0
1.27673615785 4.19601585877 0.0
1.29190671097 4.20884826442 0.0
1.30673206073 4.22207810803 0.0
1.32120167579 4.23569599189 0.0
1.33530551541 4.24969246611 0.0
1.34903357612 4.26405760374 0.0
1.36237630898 4.27878141198 0.0
1.3753242847 4.29385348652 0.0
1.38786845609 4.30926329506 0.0
1.05632730172 4.46025283906 0.0
0.549964048968 4.4630053958 0.0
0.806135520676 4.31186690218 0.0
0.603895783049 4.26079310371 0.0
1.22984770884 4.38318704125 0.0
0.3703382852 4.38423552752 0.0
0.995322815839 4.25565031136 0.0
0.728315816804 4.1765935937 0.0
0.872128173905 4.17288724072 0.0
1.14059401893 4.27298468684 0.0
0.461553191009 4.27181671009 0.0
0.784706775856 4.56821390922 0.0
0.398287125272 4.57945970538 0.0
1.20625306554 4.58334743514 0.0
0.624100842742 4.1589824436 0.0
0.5257453845 4.18811776279 0.0
0.978502430793 4.15488737058 0.0
1.07419209812 4.18825154482 0.0
0.364313698077 4.28677035763 0.0
1.23509538257 4.28681716733 0.0
0.68124123937 4.39284548972 0.0
1.31679378691 4.35012066749 0.0
0.283206213094 4.35012066749 0.0
0.791498533126 4.11467141721 0.0
0.931481076052 4.3801344917 0.0
0.966719065571 4.62778042839 0.0
0.684451667517 4.11068036752 0.0
0.618335406951 4.62686910993 0.0
0.450982331762 4.19686171732 0.0
0.915674266355 4.10995633851 0.0
1.14900051594 4.19689012964 0.0
1.30193709687 4.4481448133 0.0
0.298574667609 4.44816296922 0.0
1.05734787542 4.34990107617 0.0
0.539273225177 4.35252599628 0.0
0.709896798149 4.27721026287 0.0
0.895708916005 4.26924194389 0.0
0.813273511364 4.43835766235 0.0
0.559289631452 4.13230879113 0.0
1.04001407307 4.13281539633 0.0
0.801161810585 4.23146244955 0.0
0.665113819616 4.52056650186 0.0
0.852577362173 4.09111846388 0.0
0.390256727869 4.2242806298 0.0
1.20974450479 4.22428104599 0.0
0.921542541183 4.52778058719 0.0
1.14030889032 4.36437344809 0.0
1.15600477272 4.46808538305 0.0
0.435243219029 4.4750581257 0.0
0.462045157798 4.36654654286 0.0
0.735806812738 4.08472269746 0.0
1.30082934537 4.29793772796 0.0
0.299170654625 4.29793772796 0.0
0.533651712118 4.26265983853 0.0
0.666130919144 4.21652131559 0.0
1.0676097303 4.26179469382 0.0
1.08054433577 4.58530946155 0.0
0.506773767255 4.56568295079 0.0
0.626745312844 4.10124420826 0.0
0.933845304214 4.2106954732 0.0
0.293717639664 4.55175000185 0.0
0.312505022079 4.66426411351 0.0
1.3058164124 4.55154930624 0.0
1.29054387065 4.66302765963 0.0
0.973467966326 4.09941619478 0.0
0.487935413164 4.15087084015 0.0
0.461549079751 4.68836834982 0.0
1.11203248746 4.15093503889 0.0
1.14453515393 4.70617370303 0.0
0.840217564202 4.68891146633 0.0
0.585347033288 4.20539048534 0.0
0.619177396637 4.34227576306 0.0
0.331644410315 4.24962190462 0.0
1.26835558968 4.24962190462 0.0
1.01536156978 4.19987473052 0.0
0.809331033562 4.07065709122 0.0
0.982321540791 4.33437358971 0.0
0.725600576914 4.66999651799 0.0
0.812291456186 4.16642942492 0.0
0.335887692543 4.33918235669 0.0
1.26344844681 4.34017131907 0.0
1.23449730504 4.49457441524 0.0
1.34334172095 4.40539551957 0.0
0.256658279045 4.40539551957 0.0
0.741646926828 4.34287908527 0.0
0.674799084703 4.16673768522 0.0
1.18647435526 4.30955189749 0.0
0.360563250283 4.49596479569 0.0
0.873716483853 4.33845499203 0.0
0.418704489949 4.31146264283 0.0
0.492670911224 4.22931614809 0.0
0.403480880356 4.19046776931 0.0
1.19651541215 4.1904686246 0.0
0.728649253738 4.46214546491 0.0
1.00883674467 4.40174664879 0.0
1.11035034557 4.23161841276 0.0
0.261968539765 4.3130079512 0.0
1.33803146023 4.3130079512 0.0
0.74649980488 4.1318354354 0.0
0.927597725248 4.1577597079 0.0
0.892956618256 4.07619338913 0.0
0.659794281787 4.07951387326 0.0
0.587663534405 4.09486537006 0.0
0.942353209926 4.07935300973 0.0
1.01493747319 4.09476013719 0.0
0.613130017774 4.41369803882 0.0
0.449373501074 4.15377191978 0.0
0.514840228377 4.12225850006 0.0
0.497057592 4.41333092106 0.0
1.15061382426 4.15379293084 0.0
1.08514419473 4.12228328152 0.0
0.745617635771 4.23098957592 0.0
0.87523452213 4.59853036549 0.0
0.855262884783 4.2258970831 0.0
1.01126200032 4.53280064162 0.0
1.09391916408 4.40632408872 0.0
1.04436265455 4.71482000827 0.0
0.314320181089 4.38773968607 0.0
1.28649331902 4.38743720145 0.0
0.771211579291 4.06316862024 0.0
0.432259099658 4.24006002157 0.0
0.698583889427 4.07144353526 0.0
1.16802128371 4.238862881 0.0
1.09587629216 4.3086676659 0.0
1.35920470355 4.35666960471 0.0
0.240795296449 4.35666960471 0.0
0.504003580654 4.30815758118 0.0
0.579942709371 4.5342075073 0.0
0.875915224914 4.12815792528 0.0
0.426503136644 4.40717733008 0.0
0.57541416445 4.30365301522 0.0
0.683877978289 4.33161848113 0.0
0.888061695889 4.44633509246 0.0
0.26012287522 4.49859249103 0.0
1.33987712478 4.49859249103 0.0
0.801393572636 4.37060096582 0.0
0.558460082533 4.72496728209 0.0
1.1741923373 4.41132830101 0.0
0.83220012886 4.12779415912 0.0
1.02815069622 4.30053276509 0.0
0.948308583502 4.2880204454 0.0
0.846588933095 4.50834596945 0.0
0.343666800815 4.43485820652 0.0
1.25632767671 4.43480360053 0.0
0.97849585731 4.47031535602 0.0
1.10170977548 4.51507265998 0.0
0.662193131828 4.26809398492 0.0
0.400503668388 4.26881657105 0.0
1.20117145985 4.26130427377 0.0
0.350957892513 4.21796558019 0.0
1.24904210749 4.21796558019 0.0
0.771964652188 4.18905379403 0.0
0.932165148285 4.72736281402 0.0
0.373672364094 4.73321357765 0.0
0.760245937722 4.28409350779 0.0
0.848718469252 4.05767763075 0.0
1.23385612561 4.7358294747 0.0
0.846421485813 4.28065918421 0.0
0.651597058631 4.13043284014 0.0
0.650489852552 4.72138045504 0.0
0.58457834847 4.16375088261 0.0
0.48701309933 4.18859927013 0.0
0.708495738406 4.58856947756 0.0
1.11203398596 4.18878062515 0.0
0.54865558244 4.10250047869 0.0
1.05126102377 4.10234629471 0.0
0.300013757486 4.26259646442 0.0
1.29998624251 4.26259646442 0.0
0.9465032388 4.12718070354 0.0
0.708587583337 4.14146095907 0.0
0.973348904468 4.19537871864 0.0
0.628721855632 4.19538356945 0.0
0.380175010018 4.34021880077 0.0
0.662092932411 4.45899041267 0.0
1.05133526787 4.22221992007 0.0
0.528087045766 4.64327882187 0.0
1.22233124543 4.33521693908 0.0
1.19001193434 4.36273586668 0.0
0.853024099244 4.39544003492 0.0
0.542800296246 4.22324366905 0.0
0.247706318737 4.45239119247 0.0
1.35229368126 4.45239119247 0.0
0.599153768578 4.12953797005 0.0
1.01616570494 4.16227683178 0.0
0.744705786938 4.40569544575 0.0
1.31929001115 4.73702550052 0.0
0.777615355331 4.15113602511 0.0
1.33132411895 4.60631378639 0.0
0.265621610877 4.60975488866 0.0
0.532023338888 4.15374454388 0.0
1.0697792195 4.15241429251 0.0
0.286371037106 4.73010312914 0.0
0.497725885905 4.50153668256 0.0
0.46053455822 4.31587947599 0.0
0.433799237968 4.54629400991 0.0
0.388624781906 4.65094200004 0.0
0.554823673752 4.40451940232 0.0
1.1421595646 4.31818301431 0.0
1.14760043966 4.61655103139 0.0
1.21258698805 4.65320200685 0.0
1.16279096046 4.53292621409 0.0
0.995762647814 4.12508772517 0.0
0.456229040627 4.61456685246 0.0
0.707289391156 4.21520271873 0.0
0.763036833302 4.74285445535 0.0
0.78386198569 4.49787013126 0.0
[...]
POINT_DATA 999
VECTORS Displacement float
0.3172755087 -0.196193638545 0
0.322727318022 -0.196195271072 0
0.32 -0.2 0
0.32 -0.2 0
0.322964686391 -0.196178918908 0
0.323192841914 -0.196157602618 0
0.323397340754 -0.196133057667 0
0.323571363795 -0.196125399589 0
0.323678227292 -0.196144311917 0
0.323747004195 -0.196200346747 0
0.323718020849 -0.196302172078 0
0.323583984536 -0.196459488709 0
0.323329272008 -0.196713903368 0
0.322902178029 -0.197090294656 0
0.322281015523 -0.197655097689 0
0.321382315605 -0.198510342045 0
0.32 -0.2 0
0.32 -0.2 0
0.32 -0.2 0
0.32 -0.2 0
0.32 -0.2 0
0.32 -0.2 0
0.32 -0.2 0
0.32 -0.2 0
0.32 -0.2 0
0.32 -0.2 0
0.32 -0.2 0
0.32 -0.2 0
0.32 -0.2 0
0.32 -0.2 0
0.32 -0.2 0
0.32 -0.2 0
0.32 -0.2 0
0.318628048519 -0.198519434016 0
0.317730988303 -0.197664095736 0
0.317082472709 -0.197096120631 0
0.316670415837 -0.196714199235 0
0.316419204369 -0.196457401195 0
0.316283682122 -0.196299221036 0
0.316254374221 -0.196198386298 0
0.31632350413 -0.196142696915 0
0.316430721654 -0.196123878808 0
0.316604992764 -0.196131501369 0
0.316809664353 -0.196155991904 0
0.317037971292 -0.196177284962 0
0.317471823484 -0.196064772307 0
0.317687803129 -0.195920523466 0
0.317921129144 -0.195752354671 0
0.318176506012 -0.195560731739 0
0.318452793333 -0.195337462228 0
0.318741903969 -0.195077159339 0
0.319048353246 -0.194782653073 0
0.31938479927 -0.19445016383 0
0.319748140226 -0.194049664504 0
0.320119077973 -0.193613033266 0
0.320517642063 -0.193105547306 0
0.320965866443 -0.19251469013 0
0.321440194339 -0.191790095485 0
0.321971550347 -0.190884664187 0
0.322480934799 -0.189783234635 0
0.32289785493 -0.188685128687 0
0.323207572467 -0.187627245247 0
0.323438229303 -0.186573007248 0
0.323594603905 -0.185578781223 0
0.323687640225 -0.184612398777 0
0.323725958847 -0.183695092134 0
0.323702641583 -0.18278639732 0
0.323614718899 -0.181997056721 0
0.323477676044 -0.181250282107 0
0.323305457781 -0.180563892322 0
0.32308531261 -0.179933918539 0
0.322838487158 -0.179371434283 0
0.322556689768 -0.178868782201 0
0.322257467708 -0.178431933994 0
0.321925686873 -0.178050002049 0
0.321577765628 -0.177738653194 0
0.321204879393 -0.177486892752 0
0.320824770802 -0.177297334307 0
0.320429794245 -0.177158830037 0
0.319985418934 -0.177045595653 0
0.319561638647 -0.17716745073 0
0.319165845632 -0.1772995994 0
0.31878596797 -0.177485960121 0
0.318420964818 -0.177737574426 0
0.318072708512 -0.17805080924 0
0.317740723016 -0.178429297943 0
0.317431276815 -0.178875168944 0
0.317159701972 -0.179374158253 0
0.31691537826 -0.179939929398 0
0.316696445678 -0.180569276576 0
0.316523335243 -0.181253173148 0
0.316384711217 -0.181996817688 0
0.316301534282 -0.18280528183 0
0.316275978106 -0.18370054292 0
0.316313750499 -0.184615994593 0
0.31640768516 -0.185584655145 0
0.316568165986 -0.186585553255 0
0.316796688174 -0.187632735719 0
0.317110858629 -0.188697513015 0
0.317520984497 -0.189783513504 0
0.318033506367 -0.190892964703 0
0.318566166651 -0.191799038416 0
0.319039652051 -0.19252112516 0
0.319487567856 -0.193110934451 0
0.319885852855 -0.193617704253 0
0.320256555465 -0.194053799694 0
0.320619642044 -0.194453833829 0
0.320955889288 -0.194785935291 0
0.321262161969 -0.195080103814 0
0.321551115738 -0.195340079943 0
0.321827162568 -0.195563020073 0
0.322082276394 -0.195754391003 0
0.322315360976 -0.195922385252 0
0.322531153369 -0.196066509248 0
0.322395460128 -0.192458506704 0
0.317661350999 -0.192441546051 0
0.320046615069 -0.18590053383 0
0.319024982338 -0.186196882068 0
0.323156962311 -0.193947851619 0
0.316843318683 -0.193951871016 0
0.320922774536 -0.186033662371 0
0.320112318818 -0.181826953205 0
0.319862936534 -0.181721276058 0
0.321828800183 -0.19027217887 0
0.318198992638 -0.190181433402 0
0.319868315246 -0.193763621776 0
0.317160768943 -0.196281529627 0
0.322829801297 -0.196373867313 0
0.32057833477 -0.182846583072 0
0.320037444803 -0.186304078051 0
0.319338511976 -0.182798808146 0
0.319972905842 -0.186309101955 0
0.317794135779 -0.193209161046 0
0.32220892782 -0.193196507383 0
0.318865071169 -0.189034761704 0
0.323014514708 -0.195164387694 0
0.316988370414 -0.19516173328 0
0.320069613358 -0.17963546548 0
0.32123162906 -0.188772370297 0
0.32123971916 -0.195750562598 0
0.321016496919 -0.18039216322 0
0.318652026697 -0.195795526637 0
0.319699842502 -0.189272448183 0
0.318971829365 -0.180373674024 0
0.320305712012 -0.189278732792 0
0.323561764182 -0.195525513086 0
0.316442161391 -0.195519470545 0
0.322128281516 -0.189832312599 0
0.317836651107 -0.189959049757 0
0.319472599193 -0.185167173493 0
0.320519457797 -0.184970746255 0
0.320137409225 -0.18993775706 0
0.321477837447 -0.183838779439 0
0.318544023228 -0.183832517181 0
0.320004773712 -0.183279879991 0
0.318709258378 -0.192829493102 0
0.319413196102 -0.179139456076 0
0.318962359371 -0.191985443265 0
0.321041163346 -0.191992812836 0
0.321161116517 -0.192947934229 0
0.32271455647 -0.191888019094 0
0.323030018518 -0.193993756284 0
0.31692264513 -0.194226948616 0
0.317290372377 -0.191869439875 0
0.320766031697 -0.17905201563 0
0.322379063155 -0.194736628225 0
0.317624216083 -0.194733543022 0
0.318646549925 -0.187893014752 0
0.319744672695 -0.183788054134 0
0.321351345192 -0.187907521453 0
0.322184435444 -0.195475256274 0
0.317639837083 -0.195169778335 0
0.321739171734 -0.181213831336 0
0.320198236589 -0.183612751757 0
0.316610375152 -0.196472144605 0
0.317631306431 -0.19779006644 0
0.323394116304 -0.196472094418 0
0.322399400787 -0.197775342107 0
0.318224816707 -0.18117720015 0
0.321175793098 -0.186861212073 0
0.31834785386 -0.197763335419 0
0.318831331069 -0.186868895026 0
0.321497225971 -0.198098005668 0
0.320241540996 -0.196945175099 0
0.31974594284 -0.185043516553 0
0.318488129827 -0.188275147145 0
0.318446363521 -0.193886743269 0
0.321557396831 -0.193890905206 0
0.320159073612 -0.184913182998 0
0.31986977991 -0.178352236884 0
0.321482908894 -0.188078648052 0
0.319518126022 -0.196521240729 0
0.31996784463 -0.181224663146 0
0.317124581954 -0.194207575787 0
0.322886679433 -0.194204511348 0
0.323352251182 -0.195341811753 0
0.323460767195 -0.195683102443 0
0.316541635737 -0.195681277025 0
0.319503974271 -0.187049960951 0
0.320320015806 -0.182154675521 0
0.322437653917 -0.192134065735 0
0.316626305074 -0.195403722246 0
0.320620183313 -0.186998665309 0
0.317559180022 -0.192021550624 0
0.319032432701 -0.18834586887 0
0.319853011282 -0.191220152726 0
0.320151633021 -0.191226604282 0
0.319285635492 -0.190817988826 0
0.321959372037 -0.190335616773 0
0.321026354719 -0.188501918905 0
0.317418482832 -0.195397414396 0
0.32258438352 -0.195399726577 0
0.320336363586 -0.180329829993 0
0.319561454777 -0.181925581412 0
0.318773977368 -0.179127708897 0
0.321798645704 -0.179955325228 0
0.322316963159 -0.182049672914 0
0.318172958088 -0.17999798739 0
0.317653199304 -0.18212926992 0
0.318211716857 -0.190369592658 0
0.321141585896 -0.188631650347 0
0.322095465526 -0.185175974015 0
0.317315287493 -0.192118687296 0
0.318863081725 -0.18863789984 0
0.317908914741 -0.185182591119 0
0.319842011442 -0.18342400712 0
0.320633708102 -0.19468092921 0
0.320143481517 -0.183267573784 0
0.321907580217 -0.193725824154 0
0.322609560056 -0.191816081686 0
0.321101477552 -0.197955818814 0
0.31671192772 -0.194897751782 0
0.323290385848 -0.194910039658 0
0.320418267816 -0.178206149916 0
0.31865892541 -0.190641788551 0
0.321403260258 -0.179110743464 0
0.321321282458 -0.19064085153 0
0.322053056448 -0.189741177111 0
0.323093064105 -0.195732048469 0
0.316909536275 -0.195730048476 0
0.317955676174 -0.189730369031 0
0.318034685592 -0.193836190528 0
0.319491371375 -0.180404924531 0
0.316942075415 -0.193251485064 0
0.318431175482 -0.187969320131 0
0.319056662338 -0.18713368026 0
0.320889073949 -0.190421939838 0
0.316352797625 -0.196135793793 0
0.323646786764 -0.196138370541 0
0.320015236344 -0.187796276363 0
0.318997250587 -0.198141486465 0
0.323071518834 -0.193335535786 0
0.319782579542 -0.180087677606 0
0.32156953857 -0.187962069094 0
0.320945964906 -0.186190806547 0
0.320465545897 -0.192097599028 0
0.316576592502 -0.194891722622 0
0.323426098964 -0.194892982581 0
0.321739975391 -0.191818597326 0
0.322613475565 -0.194212325198 0
0.31926253262 -0.185428037053 0
0.318099682862 -0.192029838412 0
0.321777099664 -0.192015766373 0
0.319138994536 -0.19327125677 0
0.320865248351 -0.193276190377 0
0.320012875646 -0.181968751769 0
0.320580602257 -0.197968781623 0
0.318664371235 -0.19870903796 0
0.31975647933 -0.18507266579 0
0.319236859842 -0.178187366879 0
0.321309135507 -0.198756244365 0
0.320279277602 -0.18498927719 0
0.320958407181 -0.181491750692 0
0.319318719094 -0.197870038731 0
0.320580055439 -0.183925089866 0
0.31998149241 -0.187690153616 0
0.319224732444 -0.19446710137 0
0.320026490936 -0.187659999072 0
0.322501022496 -0.183475229408 0
0.31749746423 -0.18347675109 0
0.318206291507 -0.194655157403 0
0.321797515465 -0.194658461742 0
0.31899530966 -0.181374423314 0
0.320478957284 -0.180964994021 0
0.320042268859 -0.183843456884 0
0.319963990303 -0.183799165833 0
0.317185344455 -0.193293921053 0
0.318636316035 -0.191138400663 0
0.32065222233 -0.186459844259 0
0.318227971413 -0.196612476361 0
0.322778061687 -0.193301109463 0
0.322911221511 -0.19292165788 0
0.320515406408 -0.188695774626 0
0.319318665867 -0.186652345341 0
0.316346927901 -0.195939788153 0
0.323654647883 -0.195941210712 0
0.321311233505 -0.182631314952 0
0.319389001541 -0.183904598493 0
0.319459647491 -0.189023049593 0
0.321443583094 -0.198740421619 0
0.320091497364 -0.180766265063 0
0.323103510646 -0.197047748897 0
0.316916365668 -0.197082692337 0
0.320965583433 -0.185258704577 0
0.318993709043 -0.185295457438 0
0.318476895659 -0.198661052034 0
0.317346097176 -0.193938705053 0
0.317667076327 -0.190994092294 0
0.317131294941 -0.195460186755 0
0.317726454954 -0.197438594486 0
0.317748355915 -0.190959479209 0
0.322372618349 -0.191109349087 0
0.322333449635 -0.196548043351 0
0.322257307298 -0.197476585787 0
0.322911995901 -0.195197026846 0
0.318618622204 -0.182381738541 0
0.317674376969 -0.196487199073 0
0.319838351826 -0.183231433424 0
0.319853271671 -0.198223951115 0
0.319842938677 -0.191745864698 0
0.321025667207 -0.187286478126 0
0.320825839192 -0.19019318594 0
0.320128243246 -0.183082533568 0
0.319179043469 -0.190199084083 0
0.323522004969 -0.195832210482 0
0.321009244 -0.178412006084 0
0.317832638045 -0.194066118049 0
0.322171106693 -0.194069832489 0
0.319754388741 -0.192468421615 0
0.320250211118 -0.192474456584 0
0.318149450645 -0.192113481204 0
0.317049644162 -0.192977624199 0
0.320361092522 -0.179106393613 0
0.319186874725 -0.193016629399 0
0.31837105901 -0.192975901713 0
0.321633309691 -0.192978428378 0
0.316488552558 -0.195784016766 0
0.323281688247 -0.194455746252 0
0.320622028191 -0.184994764563 0
0.31783811929 -0.19520543297 0
0.322165262774 -0.195208063015 0
0.32162458073 -0.19705306667 0
0.316734007825 -0.194442053669 0
0.317186953092 -0.195772019711 0
0.32281580238 -0.195774010309 0
0.322337793139 -0.180752214712 0
0.320011967008 -0.182295109031 0
0.322916191644 -0.196931184058 0
0.317075229668 -0.196927293305 0
0.318452794302 -0.188968157362 0
0.320793510972 -0.179924262686 0
0.320015644133 -0.184290970525 0
0.319778135566 -0.179201549897 0
0.322439339075 -0.190834824687 0
0.321572697993 -0.189029999614 0
0.318829179274 -0.186868191123 0
0.318275363887 -0.179095580495 0
0.317701268304 -0.180794290329 0
0.32276991198 -0.193294827786 0
0.317170453396 -0.194758853861 0
0.322833098458 -0.19476062315 0
0.321276299899 -0.19425448295 0
0.31755527956 -0.190856333838 0
0.31897414975 -0.186602562889 0
0.319626477386 -0.184966437632 0
0.318603444638 -0.19422266715 0
0.319867980114 -0.195869187485 0
0.32200083895 -0.186931089059 0
0.318005479046 -0.186938872452 0
0.318885790387 -0.189491700885 0
0.321033890388 -0.189457371638 0
0.316452756306 -0.19646074595 0
0.323549709828 -0.196461732212 0
0.319366643505 -0.185160457664 0
0.321071597509 -0.186762538949 0
0.320219386658 -0.185227092458 0
0.321717047428 -0.195435407537 0
0.318856164877 -0.178439881898 0
0.321377987754 -0.190486260259 0
0.323327000387 -0.195869437595 0
0.316675449521 -0.195867622656 0
0.319437085816 -0.19051362049 0
0.319177958101 -0.179676752173 0
0.320567336053 -0.190519360612 0
0.319569514389 -0.184310378629 0
0.320710809567 -0.196364271372 0
0.320858055322 -0.198855265108 0
0.322290846937 -0.19093676296 0
0.318081144013 -0.189490775291 0
0.323316592212 -0.195295792873 0
0.316686291771 -0.195293825205 0
0.323208891666 -0.196140427912 0
0.316779988778 -0.196100788441 0
0.319416444838 -0.181039663314 0
0.322072222321 -0.191339991973 0
0.321920336548 -0.179147456433 0
0.320095611832 -0.177754798919 0
0.319846423629 -0.181052780629 0
0.317055103735 -0.193210835545 0
0.317940660494 -0.191487799124 0
0.31897092404 -0.193942401195 0
0.321033200639 -0.193946523488 0
0.320297826474 -0.187180152401 0
0.320365528715 -0.184046065269 0
0.319568799731 -0.177947736276 0
0.322412722348 -0.197826952269 0
0.317394387348 -0.193853613465 0
0.322591825322 -0.193858172308 0
0.321777438509 -0.189032881091 0
0.317400843491 -0.197634890572 0
0.319192180954 -0.198926592425 0
0.322861590612 -0.192487087053 0
0.318114361632 -0.19557771718 0
0.320295068953 -0.18280092652 0
0.321580210714 -0.189058685643 0
0.321745319566 -0.188649553839 0
0.320427309555 -0.184897227734 0
0.321263937143 -0.187017900118 0
0.318529575476 -0.189117073667 0
0.316866237586 -0.195172581405 0
0.32142496199 -0.180754922737 0
0.321173410689 -0.182094981138 0
0.316928112275 -0.194743171202 0
0.323074097125 -0.194760569389 0
0.318645713863 -0.194430949619 0
0.321358163593 -0.194434607744 0
0.319851757639 -0.182194289822 0
0.322309812498 -0.192623361285 0
0.322310079768 -0.193673055361 0
0.319724182571 -0.18283156407 0
0.318233386617 -0.188704036286 0
0.319529752209 -0.185785732578 0
0.31746512315 -0.192862470925 0
0.317135457188 -0.195484546121 0
0.322867256169 -0.195486834655 0
0.320249311174 -0.19841665034 0
0.32060948232 -0.186318653566 0
0.320576184799 -0.187927661655 0
0.317151275858 -0.192462093102 0
0.32052566021 -0.185742651072 0
0.31853477573 -0.180735664496 0
0.317332312631 -0.192904707858 0
0.320613802667 -0.187174537588 0
0.320887301557 -0.199061868638 0
0.322891083635 -0.182600669484 0
0.319439277928 -0.187942469658 0
0.31916680939 -0.196178940778 0
0.32016709883 -0.181042791605 0
0.319485711601 -0.186448328668 0
0.319876256813 -0.184054137836 0
0.322842235236 -0.184204479879 0
0.317071901514 -0.182605259795 0
0.319440579653 -0.187157652357 0
0.317158924697 -0.18420960452 0
0.319983712578 -0.180393484585 0
0.320139660682 -0.183992243179 0
0.320162439447 -0.17866539388 0
0.323575191998 -0.195926583885 0
0.316426878339 -0.195924905327 0
0.322783194585 -0.181146311325 0
0.322438739623 -0.180021633196 0
0.319718587555 -0.198785254302 0
0.317578486933 -0.180023122984 0
0.317220301378 -0.181185020915 0
0.322664833657 -0.186051522815 0
0.322169336099 -0.187889741631 0
0.320079546241 -0.182388714301 0
0.317341142809 -0.186059386503 0
0.317836619111 -0.1878974307 0
0.323194609462 -0.194824574291 0
0.321448172687 -0.196595340676 0
0.319827606288 -0.186887199237 0
0.320826892753 -0.177901986208 0
0.318654952329 -0.179673783637 0
0.321442513996 -0.178356900508 0
0.320680478432 -0.181229881004 0
0.322977868566 -0.193829615275 0
0.323313164642 -0.19559468797 0
0.31668938902 -0.195592669382 0
0.317677154429 -0.193599156826 0
0.323463947534 -0.19528574448 0
0.316538541258 -0.195283676908 0
0.320350490939 -0.193588539321 0
0.319337615255 -0.185584313091 0
0.320524155437 -0.198763459631 0
0.319545524272 -0.178686475139 0
0.320800089672 -0.18838040254 0
0.320533764927 -0.191708103839 0
0.319471416151 -0.191715517976 0
0.316859221642 -0.194367821622 0
0.320799326487 -0.186121186763 0
0.31833900214 -0.182948868789 0
0.320228229973 -0.183774077734 0
0.322545500014 -0.195621931026 0
0.319963421014 -0.182490041446 0
0.319195559591 -0.186028217773 0
0.32141001267 -0.179777330979 0
0.320002825069 -0.182131081702 0
0.316761908939 -0.194034381066 0
0.319082151907 -0.189750075732 0
0.319589617599 -0.179986270011 0
0.319685702026 -0.190211014406 0
0.319138623319 -0.187877213174 0
0.321904809971 -0.18427002487 0
0.320132609797 -0.190089463249 0
0.319872412655 -0.190095412177 0
0.318101940004 -0.184275976256 0
0.320285793491 -0.186069951569 0
0.320494523867 -0.179586341647 0
0.321986180112 -0.183067411765 0
0.323509066911 -0.195382114468 0
0.316496894026 -0.195352716763 0
0.319195761649 -0.199138096582 0
0.319720078611 -0.183778794682 0
0.323236159219 -0.194014905345 0
0.320251860914 -0.179745983155 0
0.318404167982 -0.178582673555 0
0.317238871212 -0.19513045426 0
0.322763645394 -0.195132992162 0
0.317620611692 -0.19563539772 0
0.32238248432 -0.195637532287 0
0.319158217769 -0.179097849121 0
0.317274457308 -0.192272367422 0
0.321726077225 -0.181962967043 0
0.323128958514 -0.19577629084 0
0.32066890954 -0.185895620692 0
0.318735005442 -0.181686941002 0
0.323143080836 -0.194373355516 0
0.317042175013 -0.195928542879 0
0.32296049339 -0.195930378346 0
0.320747655282 -0.193177454481 0
0.322035178038 -0.191549878001 0
0.321347633304 -0.185793697484 0
0.317473422824 -0.194341926513 0
0.322529790303 -0.194344422466 0
0.318545406471 -0.191563420804 0
0.31995243769 -0.182858073053 0
0.321415583288 -0.19159374777 0
0.320667969789 -0.185186494696 0
0.320672566467 -0.178520078934 0
0.317557847399 -0.191062376615 0
0.318666392155 -0.185829404363 0
0.31934323522 -0.191343478769 0
0.320661134953 -0.19134954388 0
0.321619420256 -0.193088122256 0
0.318600138262 -0.189332244763 0
0.319124114165 -0.199244377878 0
0.318231633662 -0.195041390319 0
0.321772110212 -0.195044319396 0
0.320971287254 -0.179359773095 0
0.321473369816 -0.189481828175 0
0.318530084669 -0.189486814449 0
0.319689737001 -0.18447988669 0
0.320043664219 -0.182916940294 0
0.319364370532 -0.198586863319 0
0.319434558705 -0.188668057806 0
0.318940439833 -0.191714178867 0
0.322671099991 -0.192056299433 0
0.320500830629 -0.190824161421 0
0.320575127961 -0.188730614342 0
0.320315801857 -0.184359298034 0
0.323570763934 -0.195677278595 0
0.316431596594 -0.195675695076 0
0.318896041581 -0.187838936094 0
0.318088733621 -0.193557202023 0
0.321912269331 -0.193550534156 0
0.322004227937 -0.1900127242 0
0.318666389908 -0.19337104237 0
0.321319590549 -0.193360158169 0
0.316303797891 -0.196095039574 0
0.323697580783 -0.196096863683 0
0.318761367834 -0.186955714139 0
0.320963896808 -0.197210734291 0
0.322993754228 -0.193294054343 0
0.320868869275 -0.191833286377 0
0.321425712127 -0.189420037373 0
0.320032388426 -0.18252165414 0
0.319721002297 -0.185635378222 0
0.317848973781 -0.179339961544 0
0.322051332234 -0.192687154785 0
0.323316062803 -0.194505904713 0
0.316685031888 -0.194506512289 0
0.317747574135 -0.192227026117 0
0.31800399191 -0.189996492437 0
0.320354734942 -0.184293425275 0
0.318636355544 -0.190156909116 0
0.319668459085 -0.181341755713 0
0.32159525022 -0.189911180136 0
0.321011500956 -0.189480762143 0
0.319649565781 -0.194721020224 0
0.321139706274 -0.187979929295 0
0.321941352733 -0.180524029208 0
0.321853358964 -0.18894053053 0
0.322914683263 -0.192692595054 0
0.320316424966 -0.195695788152 0
0.318305463484 -0.188520772181 0
0.319662396055 -0.187957622992 0
0.318937413673 -0.197354928827 0
0.318304466076 -0.193117372159 0
0.318602251283 -0.18762761784 0
0.319705833501 -0.183927497588 0
0.318723535862 -0.188096271269 0
0.317892500635 -0.191476905372 0
0.318054251383 -0.180521365957 0
0.31787499356 -0.181508383409 0
0.316845093957 -0.195973463119 0
0.323157446668 -0.195975228593 0
0.323647489567 -0.195898616509 0
0.316354204728 -0.195898602031 0
0.32040020668 -0.177675669821 0
0.320303610278 -0.181006592131 0
0.32138674289 -0.187629075316 0
0.31988350748 -0.182770846144 0
0.322064001896 -0.194606554832 0
0.318570570968 -0.1977123654 0
0.323090821305 -0.19346693939 0
0.320251482365 -0.183687566749 0
0.320101491257 -0.185794949117 0
0.321185729341 -0.187224170323 0
0.318508441425 -0.190146638 0