# vtk DataFile Version 2.0
Generated with Solid Solver
ASCII
DATASET UNSTRUCTURED_GRID
POINTS 999 float 
0.2 4.325 0.0
1.4 4.325 0.0
1.4 4.825 0.0
0.2 4.825 0.0
1.4 4.34523264049 0.0
1.4 4.36751203886 0.0
1.4 4.39204525371 0.0
1.4 4.4190602782 0.0
1.4 4.44880817466 0.0
1.4 4.48156541084 0.0
1.4 4.51763640748 0.0
1.4 4.5573564007 0.0
1.4 4.60109451608 0.0
1.4 4.64925723872 0.0
1.4 4.70229217343 0.0
1.4 4.76069218095 0.0
1.33333333333 4.825 0.0
1.26666666667 4.825 0.0
1.2 4.825 0.0
1.13333333333 4.825 0.0
1.06666666667 4.825 0.0
1.0 4.825 0.0
0.933333333334 4.825 0.0
0.866666666668 4.825 0.0
0.800000000001 4.825 0.0
0.733333333334 4.825 0.0
0.666666666668 4.825 0.0
0.600000000001 4.825 0.0
0.533333333334 4.825 0.0
0.466666666667 4.825 0.0
0.4 4.825 0.0
0.333333333334 4.825 0.0
0.266666666667 4.825 0.0
0.2 4.76069218095 0.0
0.2 4.70229217343 0.0
0.2 4.64925723872 0.0
0.2 4.60109451608 0.0
0.2 4.5573564007 0.0
0.2 4.51763640748 0.0
0.2 4.48156541084 0.0
0.2 4.44880817466 0.0
0.2 4.4190602782 0.0
0.2 4.39204525371 0.0
0.2 4.36751203886 0.0
0.2 4.34523264049 0.0
0.212131543907 4.30926329506 0.0
0.224675715302 4.29385348652 0.0
0.23762369102 4.27878141198 0.0
0.250966423879 4.26405760374 0.0
0.264694484585 4.24969246611 0.0
0.278798324214 4.23569599189 0.0
0.293267939266 4.22207810803 0.0
0.308093289028 4.20884826442 0.0
0.323263842145 4.19601585877 0.0
0.338769084145 4.18358978512 0.0
0.354597997314 4.17157887342 0.0
0.37073960121 4.15999145532 0.0
0.387182441982 4.14883575334 0.0
0.403915091795 4.13811952025 0.0
0.420925712897 4.12785033813 0.0
0.438202430937 4.11803537461 0.0
0.455733079095 4.10868154223 0.0
0.473505374364 4.09979539439 0.0
0.491506842655 4.09138316882 0.0
0.509724826085 4.0834507802 0.0
0.528146580414 4.07600377808 0.0
0.546759103951 4.06904741762 0.0
0.56554943677 4.06258654322 0.0
0.584504260001 4.05662573401 0.0
0.60361041518 4.0511691282 0.0
0.622854334779 4.04622060039 0.0
0.642222678753 4.04178358113 0.0
0.661701681839 4.03786122392 0.0
0.681277836375 4.03445624851 0.0
0.700937245817 4.03157107217 0.0
0.720666255912 4.02920769845 0.0
0.740450894784 4.02736780161 0.0
0.76027736978 4.02605266363 0.0
0.780131702711 4.02526321235 0.0
0.799999999998 4.025 0.0
0.819868297285 4.02526321235 0.0
0.839722630216 4.02605266363 0.0
0.859549105212 4.02736780161 0.0
0.879333744085 4.02920769845 0.0
0.89906275418 4.03157107217 0.0
0.918722163621 4.03445624851 0.0
0.938298318157 4.03786122392 0.0
0.957777321244 4.04178358113 0.0
0.977145665218 4.04622060039 0.0
0.996389584817 4.0511691282 0.0
1.01549574 4.05662573401 0.0
1.03445056323 4.06258654322 0.0
1.05324089605 4.06904741762 0.0
1.07185341958 4.07600377808 0.0
1.09027517391 4.0834507802 0.0
1.10849315734 4.09138316882 0.0
1.12649462563 4.09979539439 0.0
1.1442669209 4.10868154222 0.0
1.16179756906 4.1180353746 0.0
1.1790742871 4.12785033813 0.0
1.1960849082 4.13811952024 0.0
1.21281755802 4.14883575334 0.0
1.22926039879 4.15999145532 0.0
1.24540200269 4.17157887342 0.0
1.26123091585 4.18358978512 0.0
1.27673615785 4.19601585877 0.0
1.29190671097 4.20884826442 0.0
1.30673206073 4.22207810803 0.0
1.32120167579 4.23569599189 0.0
1.33530551541 4.24969246611 0.0
1.34903357612 4.26405760374 0.0
1.36237630898 4.27878141198 0.0
1.3753242847 4.29385348652 0.0
1.38786845609 4.30926329506 0.0
1.05632730172 4.46025283906 0.0
0.549964048968 4.4630053958 0.0
0.806135520676 4.31186690218 0.0
0.603895783049 4.26079310371 0.0
1.22984770884 4.38318704125 0.0
0.3703382852 4.38423552752 0.0
0.995322815839 4.25565031136 0.0
0.728315816804 4.1765935937 0.0
0.872128173905 4.17288724072 0.0
1.14059401893 4.27298468684 0.0
0.461553191009 4.27181671009 0.0
0.784706775856 4.56821390922 0.0
0.398287125272 4.57945970538 0.0
1.20625306554 4.58334743514 0.0
0.624100842742 4.1589824436 0.0
0.5257453845 4.18811776279 0.0
0.978502430793 4.15488737058 0.0
1.07419209812 4.18825154482 0.0
0.364313698077 4.28677035763 0.0
1.23509538257 4.28681716733 0.0
0.68124123937 4.39284548972 0.0
1.31679378691 4.35012066749 0.0
0.283206213094 4.35012066749 0.0
0.791498533126 4.11467141721 0.0
0.931481076052 4.3801344917 0.0
0.966719065571 4.62778042839 0.0
0.684451667517 4.11068036752 0.0
0.618335406951 4.62686910993 0.0
0.450982331762 4.19686171732 0.0
0.915674266355 4.10995633851 0.0
1.14900051594 4.19689012964 0.0
1.30193709687 4.4481448133 0.0
0.298574667609 4.44816296922 0.0
1.05734787542 4.34990107617 0.0
0.539273225177 4.35252599628 0.0
0.709896798149 4.27721026287 0.0
0.895708916005 4.26924194389 0.0
0.813273511364 4.43835766235 0.0
0.559289631452 4.13230879113 0.0
1.04001407307 4.13281539633 0.0
0.801161810585 4.23146244955 0.0
0.665113819616 4.52056650186 0.0
0.852577362173 4.09111846388 0.0
0.390256727869 4.2242806298 0.0
1.20974450479 4.22428104599 0.0
0.921542541183 4.52778058719 0.0
1.14030889032 4.36437344809 0.0
1.15600477272 4.46808538305 0.0
0.435243219029 4.4750581257 0.0
0.462045157798 4.36654654286 0.0
0.735806812738 4.08472269746 0.0
1.30082934537 4.29793772796 0.0
0.299170654625 4.29793772796 0.0
0.533651712118 4.26265983853 0.0
0.666130919144 4.21652131559 0.0
1.0676097303 4.26179469382 0.0
1.08054433577 4.58530946155 0.0
0.506773767255 4.56568295079 0.0
0.626745312844 4.10124420826 0.0
0.933845304214 4.2106954732 0.0
0.293717639664 4.55175000185 0.0
0.312505022079 4.66426411351 0.0
1.3058164124 4.55154930624 0.0
1.29054387065 4.66302765963 0.0
0.973467966326 4.09941619478 0.0
0.487935413164 4.15087084015 0.0
0.461549079751 4.68836834982 0.0
1.11203248746 4.15093503889 0.0
1.14453515393 4.70617370303 0.0
0.840217564202 4.68891146633 0.0
0.585347033288 4.20539048534 0.0
0.619177396637 4.34227576306 0.0
0.331644410315 4.24962190462 0.0
1.26835558968 4.24962190462 0.0
1.01536156978 4.19987473052 0.0
0.809331033562 4.07065709122 0.0
0.982321540791 4.33437358971 0.0
0.725600576914 4.66999651799 0.0
0.812291456186 4.16642942492 0.0
0.335887692543 4.33918235669 0.0
1.26344844681 4.34017131907 0.0
1.23449730504 4.49457441524 0.0
1.34334172095 4.40539551957 0.0
0.256658279045 4.40539551957 0.0
0.741646926828 4.34287908527 0.0
0.674799084703 4.16673768522 0.0
1.18647435526 4.30955189749 0.0
0.360563250283 4.49596479569 0.0
0.873716483853 4.33845499203 0.0
0.418704489949 4.31146264283 0.0
0.492670911224 4.22931614809 0.0
0.403480880356 4.19046776931 0.0
1.19651541215 4.1904686246 0.0
0.728649253738 4.46214546491 0.0
1.00883674467 4.40174664879 0.0
1.11035034557 4.23161841276 0.0
0.261968539765 4.3130079512 0.0
1.33803146023 4.3130079512 0.0
0.74649980488 4.1318354354 0.0
0.927597725248 4.1577597079 0.0
0.892956618256 4.07619338913 0.0
0.659794281787 4.07951387326 0.0
0.587663534405 4.09486537006 0.0
0.942353209926 4.07935300973 0.0
1.01493747319 4.09476013719 0.0
0.613130017774 4.41369803882 0.0
0.449373501074 4.15377191978 0.0
0.514840228377 4.12225850006 0.0
0.497057592 4.41333092106 0.0
1.15061382426 4.15379293084 0.0
1.08514419473 4.12228328152 0.0
0.745617635771 4.23098957592 0.0
0.87523452213 4.59853036549 0.0
0.855262884783 4.2258970831 0.0
1.01126200032 4.53280064162 0.0
1.09391916408 4.40632408872 0.0
1.04436265455 4.71482000827 0.0
0.314320181089 4.38773968607 0.0
1.28649331902 4.38743720145 0.0
0.771211579291 4.06316862024 0.0
0.432259099658 4.24006002157 0.0
0.698583889427 4.07144353526 0.0
1.16802128371 4.238862881 0.0
1.09587629216 4.3086676659 0.0
1.35920470355 4.35666960471 0.0
0.240795296449 4.35666960471 0.0
0.504003580654 4.30815758118 0.0
0.579942709371 4.5342075073 0.0
0.875915224914 4.12815792528 0.0
0.426503136644 4.40717733008 0.0
0.57541416445 4.30365301522 0.0
0.683877978289 4.33161848113 0.0
0.888061695889 4.44633509246 0.0
0.26012287522 4.49859249103 0.0
1.33987712478 4.49859249103 0.0
0.801393572636 4.37060096582 0.0
0.558460082533 4.72496728209 0.0
1.1741923373 4.41132830101 0.0
0.83220012886 4.12779415912 0.0
1.02815069622 4.30053276509 0.0
0.948308583502 4.2880204454 0.0
0.846588933095 4.50834596945 0.0
0.343666800815 4.43485820652 0.0
1.25632767671 4.43480360053 0.0
0.97849585731 4.47031535602 0.0
1.10170977548 4.51507265998 0.0
0.662193131828 4.26809398492 0.0
0.400503668388 4.26881657105 0.0
1.20117145985 4.26130427377 0.0
0.350957892513 4.21796558019 0.0
1.24904210749 4.21796558019 0.0
0.771964652188 4.18905379403 0.0
0.932165148285 4.72736281402 0.0
0.373672364094 4.73321357765 0.0
0.760245937722 4.28409350779 0.0
0.848718469252 4.05767763075 0.0
1.23385612561 4.7358294747 0.0
0.846421485813 4.28065918421 0.0
0.651597058631 4.13043284014 0.0
0.650489852552 4.72138045504 0.0
0.58457834847 4.16375088261 0.0
0.48701309933 4.18859927013 0.0
0.708495738406 4.58856947756 0.0
1.11203398596 4.18878062515 0.0
0.54865558244 4.10250047869 0.0
1.05126102377 4.10234629471 0.0
0.300013757486 4.26259646442 0.0
1.29998624251 4.26259646442 0.0
0.9465032388 4.12718070354 0.0
0.708587583337 4.14146095907 0.0
0.973348904468 4.19537871864 0.0
0.628721855632 4.19538356945 0.0
0.380175010018 4.34021880077 0.0
0.662092932411 4.45899041267 0.0
1.05133526787 4.22221992007 0.0
0.528087045766 4.64327882187 0.0
1.22233124543 4.33521693908 0.0
1.19001193434 4.36273586668 0.0
0.853024099244 4.39544003492 0.0
0.542800296246 4.22324366905 0.0
0.247706318737 4.45239119247 0.0
1.35229368126 4.45239119247 0.0
0.599153768578 4.12953797005 0.0
1.01616570494 4.16227683178 0.0
0.744705786938 4.40569544575 0.0
1.31929001115 4.73702550052 0.0
0.777615355331 4.15113602511 0.0
1.33132411895 4.60631378639 0.0
0.265621610877 4.60975488866 0.0
0.532023338888 4.15374454388 0.0
1.0697792195 4.15241429251 0.0
0.286371037106 4.73010312914 0.0
0.497725885905 4.50153668256 0.0
0.46053455822 4.31587947599 0.0
0.433799237968 4.54629400991 0.0
0.388624781906 4.65094200004 0.0
0.554823673752 4.40451940232 0.0
1.1421595646 4.31818301431 0.0
1.14760043966 4.61655103139 0.0
1.21258698805 4.65320200685 0.0
1.16279096046 4.53292621409 0.0
0.995762647814 4.12508772517 0.0
0.456229040627 4.61456685246 0.0
0.707289391156 4.21520271873 0.0
0.763036833302 4.74285445535 0.0
0.78386198569 4.49787013126 0.0
[...]
POINT_DATA 999
VECTORS Displacement float
-0.000134620090753 -0.0398690630091 0
0.000139571607581 -0.0398659496685 0
0.0 -0.04 0
0.0 -0.04 0
0.000146447967111 -0.0398652734297 0
0.00015313036442 -0.0398642400106 0
0.000159025409364 -0.0398628799578 0
0.000163772597707 -0.0398618095282 0
0.000166021382953 -0.0398614186996 0
0.000166672230538 -0.0398621093203 0
0.000163406779833 -0.039864255414 0
0.000155792441214 -0.0398683162759 0
0.000143135410069 -0.0398760310051 0
0.000123362457775 -0.0398885990207 0
9.56860091639e-05 -0.0399088433554 0
5.69830936088e-05 -0.0399413990826 0
0.0 -0.04 0
0.0 -0.04 0
0.0 -0.04 0
0.0 -0.04 0
0.0 -0.04 0
0.0 -0.04 0
0.0 -0.04 0
0.0 -0.04 0
0.0 -0.04 0
0.0 -0.04 0
0.0 -0.04 0
0.0 -0.04 0
0.0 -0.04 0
0.0 -0.04 0
0.0 -0.04 0
0.0 -0.04 0
0.0 -0.04 0
-5.58904580086e-05 -0.0399426197893 0
-9.40203727654e-05 -0.0399107482853 0
-0.000122264003121 -0.0398907303498 0
-0.000140975806565 -0.0398782361474 0
-0.000153070081377 -0.0398707017738 0
-0.000160345423857 -0.0398668232631 0
-0.000163255033394 -0.0398648776777 0
-0.000162257192328 -0.0398643218096 0
-0.000159696252748 -0.0398648030684 0
-0.000154678676564 -0.0398659324926 0
-0.000148547569281 -0.0398673257878 0
-0.000141664347449 -0.039868378667 0
-0.000128840190175 -0.0398654976062 0
-0.000122481368815 -0.0398616494013 0
-0.000115559752026 -0.0398572003225 0
-0.000107963022641 -0.0398521296067 0
-9.97628508586e-05 -0.0398462287872 0
-9.11589835271e-05 -0.0398393482847 0
-8.21018178633e-05 -0.0398316207146 0
-7.2290678582e-05 -0.0398229409657 0
-6.19427196499e-05 -0.0398127587957 0
-5.14408120167e-05 -0.0398018186586 0
-4.03992299121e-05 -0.0397894823255 0
-2.86723001579e-05 -0.0397758257147 0
-1.67696475713e-05 -0.0397605070392 0
-4.35946463918e-06 -0.0397437269253 0
8.40894637786e-06 -0.0397252805107 0
2.16442001258e-05 -0.0397049011867 0
3.50043075201e-05 -0.0396824259342 0
4.9117019237e-05 -0.0396578393416 0
6.32107362991e-05 -0.0396306195805 0
7.79958607094e-05 -0.0396004926086 0
9.2508944026e-05 -0.0395672987324 0
0.000108180877671 -0.0395305742684 0
0.00012329720041 -0.0394893604399 0
0.000139414653485 -0.0394435026184 0
0.000155329153277 -0.0393918142368 0
0.000173123681341 -0.039332200798 0
0.000189015114884 -0.0392638436398 0
0.000207511422732 -0.0391807852726 0
0.000221430252621 -0.0390812073962 0
0.000237798176285 -0.0389471014906 0
0.000241706193135 -0.0387334754995 0
0.000209495079351 -0.0385530168188 0
0.000157046102511 -0.0384218462834 0
9.1756679714e-05 -0.0383440743641 0
7.75534632272e-06 -0.03831283432 0
-7.38933378938e-05 -0.0383403080344 0
-0.000147370703159 -0.0384203819506 0
-0.000203510799632 -0.0385497887832 0
-0.000235499220711 -0.0387307393107 0
-0.000227400082031 -0.0389501800489 0
-0.000214253783658 -0.0390797241041 0
-0.00019572331317 -0.0391794216381 0
-0.000180248656729 -0.0392620147691 0
-0.000164499695968 -0.0393304065027 0
-0.000146993944896 -0.0393899535191 0
-0.000131347904263 -0.03944169926 0
-0.000115372119713 -0.0394875486566 0
-0.000100375809132 -0.039528506026 0
-8.49885301291e-05 -0.0395650744684 0
-7.0691584581e-05 -0.039598239269 0
-5.61101572009e-05 -0.0396283586788 0
-4.2174526216e-05 -0.0396555805371 0
-2.81840390224e-05 -0.0396801678583 0
-1.49379155505e-05 -0.0397026224613 0
-1.81159869744e-06 -0.0397229728548 0
1.08452290963e-05 -0.039741383882 0
2.31439281264e-05 -0.0397581275912 0
3.49358896484e-05 -0.0397734119183 0
4.65575020175e-05 -0.0397870353111 0
5.74964842953e-05 -0.0397993358846 0
6.79003788263e-05 -0.0398102356582 0
7.81495455147e-05 -0.0398203721728 0
8.78563442871e-05 -0.0398289954382 0
9.68046794459e-05 -0.0398366656174 0
0.000105298740127 -0.039843485931 0
0.000113388500705 -0.0398493227794 0
0.000120871626038 -0.0398543249261 0
0.000127676688005 -0.0398587023497 0
0.000133917111778 -0.0398624724289 0
0.000132237812871 -0.0397139442308 0
-0.000126770251092 -0.0397127530828 0
7.49303561258e-06 -0.0393262598614 0
-0.000117341340476 -0.0394684398401 0
0.000155808734136 -0.0397973514197 0
-0.000151498635693 -0.0397994647845 0
0.000121971627686 -0.0394605173924 0
-6.88369692446e-05 -0.0390648716638 0
7.4745722815e-05 -0.0390561687021 0
0.000124388625531 -0.0396909245343 0
-0.000118567481589 -0.0396899605118 0
-6.57579613855e-06 -0.0397356640873 0
-0.000128599199168 -0.0398675602473 0
0.000129814822515 -0.039869854028 0
-6.77976279372e-05 -0.0393455111225 0
-6.93431064423e-05 -0.0395775971951 0
6.9485534934e-05 -0.0393492402981 0
7.59278009768e-05 -0.0395754099495 0
-0.000120809877853 -0.0397859429851 0
0.000126043902302 -0.0397832005346 0
-8.28840289807e-05 -0.039529808005 0
0.000148667211793 -0.0398367239615 0
-0.000143954667491 -0.0398392193144 0
-4.81697386337e-06 -0.038738303912 0
9.54440943948e-05 -0.0395218796728 0
6.38611655513e-05 -0.0398292055778 0
-3.61442475914e-05 -0.0390922677386 0
-6.77103879881e-05 -0.0398325194021 0
-6.63596474027e-05 -0.0396908326733 0
4.32988879848e-05 -0.0390910248847 0
7.254008189e-05 -0.0396886334353 0
0.000163653647672 -0.0398451054341 0
-0.000159931651969 -0.0398471296085 0
0.000140908850399 -0.0396275450117 0
-0.000136847338066 -0.0396347544327 0
-7.72762385169e-05 -0.0393136453737 0
8.69794759396e-05 -0.0393057790278 0
1.12517369594e-05 -0.0395543696798 0
-1.12981102098e-05 -0.0395042855609 0
1.89940299547e-05 -0.039500438657 0
3.6071451493e-06 -0.0391364014306 0
-7.23023888863e-05 -0.0397038806796 0
2.89341223077e-05 -0.0387455781416 0
-8.44001841975e-05 -0.0397590518726 0
9.01965367992e-05 -0.0397567698218 0
6.69219221208e-05 -0.0397066527848 0
0.000150057677913 -0.0397230420669 0
0.000150203585572 -0.039786839476 0
-0.00014760290004 -0.0397967924916 0
-0.000145579036258 -0.0397233730478 0
-1.43301494851e-05 -0.0387803110905 0
0.000129680203234 -0.0398261858755 0
-0.000124517412875 -0.0398286943464 0
-0.000119000274557 -0.0395886620823 0
-9.95229897203e-05 -0.0392910410916 0
0.000124060607242 -0.0395885990804 0
0.000107705822074 -0.039828472187 0
-0.000114507149225 -0.0398193520199 0
1.64531165091e-05 -0.0393188579101 0
0.000104660419242 -0.0392817624165 0
-0.000148023764309 -0.0398759220964 0
-0.00010203460908 -0.0399207597601 0
0.000150719119504 -0.0398741500472 0
0.000104588440372 -0.0399191433916 0
-1.26062185884e-05 -0.0393173368931 0
-2.24474218285e-05 -0.0396367757592 0
-7.55891992831e-05 -0.0399173486696 0
2.91243023547e-05 -0.0396345492312 0
6.88962130075e-05 -0.0399293384493 0
1.28098986781e-05 -0.0398740791718 0
-9.54215076635e-05 -0.0394659363912 0
-0.000118187945775 -0.0395286568663 0
-9.9486926702e-05 -0.0398072325961 0
0.000105054188982 -0.0398047970547 0
9.76552861096e-05 -0.0394624252343 0
3.54323753056e-06 -0.0385324004916 0
0.000123318382205 -0.0395208745569 0
-2.44205999819e-05 -0.0398569846755 0
1.75126004445e-05 -0.0389414511161 0
-0.000141142598447 -0.0398114760836 0
0.000146209269032 -0.0398089769829 0
0.000155635618419 -0.0398371863597 0
0.000161269138064 -0.0398502386898 0
-0.000157092126126 -0.0398527895367 0
-4.66068688503e-05 -0.039406466023 0
-8.34758737011e-05 -0.0391987800648 0
0.000137348795631 -0.0397466566271 0
-0.000153128390201 -0.0398410980266 0
6.35613932378e-05 -0.0394085480903 0
-0.000133216962978 -0.0397445086281 0
-9.72084259968e-05 -0.0396391380301 0
-5.74312745125e-05 -0.0397446722454 0
6.35351681423e-05 -0.0397423380184 0
-4.47520227021e-05 -0.0396034119688 0
0.000126387598401 -0.0396204974998 0
0.000104226551727 -0.0396418902646 0
-0.00013054230983 -0.0398468571891 0
0.000135580596702 -0.0398441608199 0
-4.76986716301e-05 -0.0388913526873 0
8.58512113183e-05 -0.0391931650185 0
-5.78995888472e-06 -0.0389291223867 0
4.89121557492e-05 -0.0391897249701 0
4.74065866064e-05 -0.0394351796514 0
-4.24350191497e-05 -0.0391970810634 0
-4.0325848997e-05 -0.0394399871876 0
-0.000113046070058 -0.0396140938675 0
-2.24623056446e-05 -0.0396911233902 0
1.30272829551e-05 -0.0395920269949 0
-0.000143706596914 -0.0397176363753 0
2.89688640921e-05 -0.0396888601426 0
-6.15082187526e-06 -0.0395897353166 0
-5.23771582451e-05 -0.0391699365414 0
3.47838246768e-05 -0.0397780623187 0
5.98948488433e-05 -0.0391581850694 0
0.000102368925309 -0.0397526403291 0
0.000146230992157 -0.0397038661615 0
5.30916427667e-05 -0.0399211268932 0
-0.000153157078229 -0.039829957026 0
0.000157448986695 -0.0398280394423 0
1.82050637107e-05 -0.0385382317775 0
-9.81440773861e-05 -0.0397176670543 0
3.61026935674e-05 -0.0389788525446 0
0.000102933883058 -0.0397156269567 0
0.000138219671847 -0.0396490822746 0
0.000150500409653 -0.0398524897442 0
-0.000145833954261 -0.0398552574229 0
-0.000133287819483 -0.0396508766772 0
-0.000102407913824 -0.039759297452 0
6.63243361186e-05 -0.0389542699073 0
-0.000151536186159 -0.0397699500649 0
-0.000127989455061 -0.0395511350904 0
-8.87426938795e-05 -0.0394371491082 0
6.06395540368e-05 -0.0395867585442 0
-0.000159823282568 -0.0398648676049 0
0.000162906908998 -0.0398627193309 0
3.24523215184e-06 -0.0394399868431 0
-4.76612547316e-05 -0.0399283834 0
0.000155441905852 -0.0397708081254 0
3.81896209199e-05 -0.0388224290576 0
0.00013299342442 -0.0395523612853 0
0.000112654357098 -0.0394153589718 0
2.91084572744e-05 -0.0396605911062 0
-0.00015740275982 -0.0398271912016 0
0.000161218293443 -0.0398252334282 0
0.000103569740261 -0.0396692976736 0
0.000131912708007 -0.0397852687865 0
-0.000103952123515 -0.0393724163936 0
-0.000113155966926 -0.039753451928 0
0.000114392438378 -0.0397518816386 0
-7.86107927309e-05 -0.039792453986 0
8.44451248322e-05 -0.0397900412426 0
-2.8520585455e-05 -0.039025647505 0
2.92430996864e-05 -0.0399183372071 0
-5.84214432512e-05 -0.0399533125813 0
-3.56796572446e-05 -0.0392789714439 0
-3.32244352883e-05 -0.0385951383598 0
5.7675710292e-05 -0.0399546084134 0
4.66676937154e-05 -0.0392759811115 0
-4.67061734945e-05 -0.0392403693908 0
-3.35663093558e-05 -0.0399150545675 0
-5.96941015503e-05 -0.0394507699754 0
-6.32845546125e-05 -0.0396406060573 0
-4.10879946869e-05 -0.0397701520372 0
6.98381208625e-05 -0.0396372099727 0
4.13116432957e-05 -0.039526743725 0
-3.41291589272e-05 -0.0395244033597 0
-0.000106816618377 -0.0398275113472 0
0.000112269540869 -0.0398249526049 0
4.99353820896e-05 -0.0392311815444 0
-6.75391979234e-05 -0.0390423695612 0
0.000101435008099 -0.0393619977238 0
-9.53309398323e-05 -0.0393587557581 0
-0.000141728466176 -0.0397825264674 0
-8.32003331129e-05 -0.0396309489523 0
0.00010603255596 -0.0395442854426 0
-8.46057861374e-05 -0.0398710696707 0
0.000145071447404 -0.0397811364991 0
0.000151364005729 -0.0397640585173 0
4.2325088145e-05 -0.0394941596854 0
-9.97841805779e-05 -0.0395570452911 0
-0.000161956468619 -0.0398593407912 0
0.000165625964251 -0.0398568623966 0
-2.12468985565e-05 -0.0394060992806 0
6.47203348423e-05 -0.03945037671 0
-3.91785333291e-05 -0.039511942983 0
6.14810321439e-05 -0.0399531573711 0
-2.15580682112e-05 -0.0388947953514 0
0.000135182198039 -0.0398923454712 0
-0.000132159814024 -0.0398950648836 0
-3.36829789298e-05 -0.0395617497765 0
3.83070258388e-05 -0.039562703235 0
-6.43778501314e-05 -0.0399510825158 0
-0.000132299557216 -0.0397769523505 0
-0.000135287459207 -0.0397043628915 0
-0.00013365213013 -0.0398372650021 0
-0.000101106992094 -0.0399080173024 0
-0.000132573391117 -0.0396590247482 0
0.00014090561629 -0.0397061273982 0
0.000109347398519 -0.0398729583539 0
0.000101611730453 -0.0399085586634 0
0.000139094135152 -0.0398268391836 0
2.34661585799e-05 -0.0393896150572 0
-0.000107649700056 -0.0398714078338 0
-8.29419867734e-05 -0.0391984423755 0
-7.25273440396e-06 -0.039927487935 0
-8.28115149335e-06 -0.0396430047762 0
9.77753131994e-05 -0.0394480549857 0
-3.06503816971e-05 -0.0397261986057 0
8.84317711462e-05 -0.0391869998026 0
3.70092408028e-05 -0.0397238908451 0
0.000159625630512 -0.0398539409755 0
4.4904788219e-05 -0.038714424688 0
-0.00011843949905 -0.039810565049 0
0.000123711756119 -0.0398081673835 0
-6.05719808675e-05 -0.0397737320469 0
6.65927098128e-05 -0.0397713480093 0
-0.000104845751138 -0.0396856887886 0
-0.000148229888885 -0.039766531567 0
-1.57447727556e-05 -0.0386933715174 0
-4.53885551714e-05 -0.0397060353583 0
-0.00010230128566 -0.0397824376186 0
0.000107861464924 -0.03978006734 0
-0.00015654994465 -0.0398544620115 0
0.000157719612468 -0.0398081808383 0
0.000113521191153 -0.0393696791445 0
-0.000117912395065 -0.0398421050903 0
0.00012318867708 -0.0398394328518 0
7.81917774764e-05 -0.0398876763656 0
-0.000153566318554 -0.0398090371923 0
-0.000137382910701 -0.0398569598626 0
0.000142272746471 -0.0398541193594 0
7.53867435492e-05 -0.039337057393 0
4.67666168632e-05 -0.0390645242165 0
0.000129785138559 -0.0398900395379 0
-0.00012822204628 -0.0398911967438 0
-0.000117142879941 -0.0396433136294 0
-4.16409310163e-05 -0.038952215473 0
5.67303037924e-06 -0.0392151275488 0
2.01227201027e-05 -0.0386856699023 0
0.000146327244144 -0.0396794689033 0
0.000123086005182 -0.039643029327 0
-0.000114950082071 -0.0394637948887 0
-7.08012876331e-05 -0.0390580817329 0
-6.29972127877e-05 -0.0393348796043 0
0.000143601124178 -0.0397556151666 0
-0.000138743911829 -0.0398281385208 0
0.000143615095751 -0.0398256938574 0
6.92373480129e-05 -0.0397654863956 0
-0.000141884813432 -0.0396824263031 0
-0.000116734438931 -0.0395131042198 0
6.96418350336e-05 -0.0395122349991 0
-7.36219304769e-05 -0.039766057345 0
-6.4873291914e-06 -0.0398280445652 0
4.25204349266e-06 -0.0396522671449 0
2.51553826718e-06 -0.0396500077878 0
-9.52511141804e-05 -0.0396822483272 0
9.80587520889e-05 -0.0396806995505 0
-0.000153619412222 -0.0398744319752 0
0.000156375679661 -0.0398723908748 0
-0.000110520648079 -0.0394086989166 0
0.000122385459199 -0.0395207662727 0
-6.91511803639e-05 -0.0395219849207 0
8.71266065941e-05 -0.0398210058942 0
-4.4060342527e-05 -0.0387590944998 0
9.08731032923e-05 -0.0396019073439 0
0.000157274174325 -0.0398557947315 0
-0.000152855083894 -0.0398585880538 0
-7.15912488512e-05 -0.0397236218523 0
4.32406898152e-05 -0.0389142296239 0
7.76148459454e-05 -0.0397213607935 0
-9.34315129856e-05 -0.0392870216904 0
3.7067967697e-05 -0.0398512347837 0
3.99651574746e-05 -0.0399568479979 0
0.000138245204713 -0.0396598189259 0
-0.000128972839264 -0.0395971236622 0
0.000157614882231 -0.0398395716789 0
-0.000153250996033 -0.0398419875474 0
0.000145737383429 -0.0398632345248 0
-0.000143817775356 -0.0398635152265 0
7.57023874117e-05 -0.0390873188987 0
0.000127611798702 -0.0397257255508 0
0.000102158791549 -0.0391093635623 0
1.46967259781e-05 -0.0384299100003 0
5.15094023103e-05 -0.0389508341141 0
-0.000147670941485 -0.0397607921892 0
-0.000121099187168 -0.03973345763 0
-8.38038847773e-05 -0.0398095070986 0
8.95650773226e-05 -0.0398070233616 0
3.06166909627e-05 -0.0394070249724 0
9.87110557195e-05 -0.039270733821 0
-2.2462782596e-05 -0.0384867746456 0
0.000103131352383 -0.0399190569532 0
-0.000132927905882 -0.0398024503734 0
0.000137413049334 -0.0398002969386 0
0.00012965044917 -0.0395715763149 0
-0.000110212353064 -0.0399138042244 0
-3.71874431617e-05 -0.0399596989098 0
0.000152145496792 -0.0397379949006 0
-9.27154835261e-05 -0.0398296738151 0
-8.51105124441e-05 -0.0392920079356 0
0.000116763146683 -0.0395543543336 0
0.000134663975628 -0.0396004732535 0
0.00011067046835 -0.0394223951367 0
0.000126109961849 -0.0394869261219 0
-0.000105064378396 -0.0395505388691 0
-0.000145117348553 -0.0398303431225 0
-5.2021649805e-06 -0.0392262622686 0
-3.13207521329e-05 -0.0393424056923 0
-0.000146514145137 -0.0398266072442 0
0.00015109634909 -0.0398247354718 0
-9.36055540914e-05 -0.0398220066008 0
9.9235969543e-05 -0.039819464213 0
9.05598272058e-05 -0.0391487158594 0
0.000130885672145 -0.0397649521976 0
0.000121390782206 -0.0397581460722 0
9.18642100058e-05 -0.0392895859095 0
-0.000130471813404 -0.0396037084908 0
-5.74307659179e-05 -0.0393354484349 0
-0.000133178970959 -0.0397721666686 0
-0.000139115821738 -0.0398487816749 0
0.00014396051904 -0.0398461003861 0
1.27338994531e-05 -0.0399356408141 0
-4.49553088944e-05 -0.0396008621147 0
-4.10395138365e-05 -0.0396624536616 0
-0.000147827040449 -0.0397390027634 0
6.95381005911e-05 -0.0393366003829 0
9.40185315243e-06 -0.0392285874457 0
-0.000138272296659 -0.0397404031596 0
9.75483734817e-05 -0.0395926572243 0
3.99797075998e-05 -0.0399653279509 0
7.18924366002e-05 -0.0394957608508 0
4.78386894339e-05 -0.0396603489624 0
-4.22637297751e-05 -0.0398445084646 0
-4.71017816751e-05 -0.0389531910343 0
5.46190198158e-05 -0.0396015701429 0
-2.53565506338e-05 -0.0392025633606 0
4.97354135849e-05 -0.0395695002986 0
-6.63348253467e-05 -0.0394951850664 0
-8.9294052604e-05 -0.0395963230029 0
-4.24962741328e-05 -0.0395672330567 0
7.87926042825e-06 -0.038840637793 0
3.45108927202e-05 -0.0391993908518 0
-1.73457419574e-07 -0.0385901538925 0
0.000164060077711 -0.0398566583558 0
-0.000160068230124 -0.0398593189641 0
9.73878154439e-05 -0.0394012000784 0
0.000111216900418 -0.0392820969239 0
-1.39230093407e-05 -0.0399511459684 0
-0.000100952474314 -0.0392780755859 0
-8.80230795879e-05 -0.0394014307601 0
2.89856289748e-05 -0.0396338825109 0
6.54228972295e-06 -0.0396813455114 0
-8.44995094077e-05 -0.0391596997267 0
-2.20614566042e-05 -0.039631606655 0
1.54584528515e-07 -0.0396790807365 0
0.000151992950452 -0.0398177666105 0
7.17383963088e-05 -0.039866931257 0
-1.53433084079e-05 -0.0393890827486 0
7.80512445829e-05 -0.0385522312608 0
9.37563569782e-07 -0.0390559249701 0
9.98956005537e-05 -0.0388419692223 0
-6.51898815448e-05 -0.0391445200188 0
0.000150150531709 -0.0397961775218 0
0.000157138727089 -0.0398481662595 0
-0.00015272433915 -0.0398507633384 0
-0.000119715249249 -0.0397565649098 0
0.000161864800066 -0.0398385256833 0
-0.000157819365548 -0.0398407649565 0
2.05333116758e-05 -0.039728232926 0
-0.000109592722962 -0.039462825995 0
2.57288446054e-05 -0.039951141029 0
1.28138735271e-05 -0.0386306968453 0
6.64363405922e-05 -0.0394857372827 0
-3.85488662566e-05 -0.0397579170946 0
4.47767330754e-05 -0.0397555521406 0
-0.00014966959753 -0.0398142640451 0
9.65721341659e-05 -0.0393847536316 0
7.22167276649e-06 -0.0394548892049 0
-8.18636440647e-05 -0.0394002517706 0
0.000122261220691 -0.0398385790268 0
-5.515669668e-05 -0.0390950617804 0
-9.43362419941e-05 -0.039384878311 0
1.10936916456e-05 -0.0390885617593 0
1.00787774936e-05 -0.0390334609251 0
-0.000154382748327 -0.0397985757603 0
-6.27181849087e-05 -0.0395562411093 0
5.14420420876e-05 -0.038851986379 0
-1.99470004994e-05 -0.0395694306075 0
-7.23192184585e-05 -0.0394646257109 0
8.73238256195e-06 -0.0395460531263 0
-5.03476085789e-05 -0.0397190338504 0
5.65850378455e-05 -0.0397167534282 0
-1.74805591371e-06 -0.0395437738208 0
3.61503722376e-05 -0.0393419172917 0
-3.63812208816e-05 -0.0388072437674 0
1.78605981117e-05 -0.0394827579527 0
0.000161754222398 -0.0398400962598 0
-0.000158301638295 -0.0398411931976 0
-3.5995060962e-05 -0.039968323442 0
8.51496173469e-05 -0.0394049594351 0
0.000158193426572 -0.039796016847 0
-2.66895181514e-05 -0.0387773817002 0
-9.09918282385e-05 -0.0389364266613 0
-0.000136216774412 -0.039838998732 0
0.000141121041399 -0.0398364389994 0
-0.000124423726231 -0.0398537329906 0
0.000129584443414 -0.0398509184698 0
2.06353945216e-05 -0.0388070151843 0
-0.000143199899464 -0.0397458799497 0
9.1671482612e-06 -0.0393857387538 0
0.000144512674014 -0.0398501423981 0
0.000112941939547 -0.0394942874701 0
3.14268057861e-05 -0.0393084836505 0
0.00015412954175 -0.0398122354978 0
-0.000141674271767 -0.0398611492729 0
0.000146455209212 -0.0398582286747 0
4.33399380533e-05 -0.039712093009 0
0.000120507666489 -0.0396679142493 0
-1.70045743904e-05 -0.0395988756885 0
-0.000129546707197 -0.0398171716829 0
0.000134621350757 -0.0398147626092 0
-9.90466426729e-05 -0.0397442503776 0
-2.56062189511e-05 -0.0391063578378 0
0.000103124684022 -0.0397431159719 0
0.000106702453503 -0.0393524844633 0
1.28729325277e-05 -0.038648160719 0
-0.000140664621671 -0.0396759976621 0
2.40766484885e-05 -0.0395975799879 0
-7.32358437039e-05 -0.0397445977919 0
7.91748294407e-05 -0.0397422637344 0
9.08232219321e-05 -0.0397202552994 0
-0.000107666212905 -0.0396668150876 0
-3.72121716241e-05 -0.0399724925426 0
-0.000106125764137 -0.0398380439237 0