# vtk DataFile Version 2.0
Generated with Solid Solver
ASCII
DATASET UNSTRUCTURED_GRID
POINTS 999 float 
0.2 4.325 0.0
1.4 4.325 0.0
1.4 4.825 0.0
0.2 4.825 0.0
1.4 4.34523264049 0.0
1.4 4.36751203886 0.0
1.4 4.39204525371 0.0
1.4 4.4190602782 0.0
1.4 4.44880817466 0.0
1.4 4.48156541084 0.0
1.4 4.51763640748 0.0
1.4 4.5573564007 0.0
1.4 4.60109451608 0.0
1.4 4.64925723872 0.0
1.4 4.70229217343 0.0
1.4 4.76069218095 0.0
1.33333333333 4.825 0.0
1.26666666667 4.825 0.0
1.2 4.825 0.0
1.13333333333 4.825 0.0
1.06666666667 4.825 0.0
1.0 4.825 0.0
0.933333333334 4.825 0.0
0.866666666668 4.825 0.0
0.800000000001 4.825 0.0
0.733333333334 4.825 0.0
0.666666666668 4.825 0.0
0.600000000001 4.825 0.0
0.533333333334 4.825 0.0
0.466666666667 4.825 0.0
0.4 4.825 0.0
0.333333333334 4.825 0.0
0.266666666667 4.825 0.0
0.2 4.76069218095 0.0
0.2 4.70229217343 0.0
0.2 4.64925723872 0.0
0.2 4.60109451608 0.0
0.2 4.5573564007 0.0
0.2 4.51763640748 0.0
0.2 4.48156541084 0.0
0.2 4.44880817466 0.0
0.2 4.4190602782 0.0
0.2 4.39204525371 0.0
0.2 4.36751203886 0.0
0.2 4.34523264049 0.0
0.212131543907 4.30926329506 0.0
0.224675715302 4.29385348652 0.0
0.23762369102 4.27878141198 0.0
0.250966423879 4.26405760374 0.0
0.264694484585 4.24969246611 0.0
0.278798324214 4.23569599189 0.0
0.293267939266 4.22207810803 0.0
0.308093289028 4.20884826442 0.0
0.323263842145 4.19601585877 0.0
0.338769084145 4.18358978512 0.0
0.354597997314 4.17157887342 0.0
0.37073960121 4.15999145532 0.0
0.387182441982 4.14883575334 0.0
0.403915091795 4.13811952025 0.0
0.420925712897 4.12785033813 0.0
0.438202430937 4.11803537461 0.0
0.455733079095 4.10868154223 0.0
0.473505374364 4.09979539439 0.0
0.491506842655 4.09138316882 0.0
0.509724826085 4.0834507802 0.0
0.528146580414 4.07600377808 0.0
0.546759103951 4.06904741762 0.0
0.56554943677 4.06258654322 0.0
0.584504260001 4.05662573401 0.0
0.60361041518 4.0511691282 0.0
0.622854334779 4.04622060039 0.0
0.642222678753 4.04178358113 0.0
0.661701681839 4.03786122392 0.0
0.681277836375 4.03445624851 0.0
0.700937245817 4.03157107217 0.0
0.720666255912 4.02920769845 0.0
0.740450894784 4.02736780161 0.0
0.76027736978 4.02605266363 0.0
0.780131702711 4.02526321235 0.0
0.799999999998 4.025 0.0
0.819868297285 4.02526321235 0.0
0.839722630216 4.02605266363 0.0
0.859549105212 4.02736780161 0.0
0.879333744085 4.02920769845 0.0
0.89906275418 4.03157107217 0.0
0.918722163621 4.03445624851 0.0
0.938298318157 4.03786122392 0.0
0.957777321244 4.04178358113 0.0
0.977145665218 4.04622060039 0.0
0.996389584817 4.0511691282 0.0
1.01549574 4.05662573401 0.0
1.03445056323 4.06258654322 0.0
1.05324089605 4.06904741762 0.0
1.07185341958 4.07600377808 0.0
1.09027517391 4.0834507802 0.0
1.10849315734 4.09138316882 0.0
1.12649462563 4.09979539439 0.0
1.1442669209 4.10868154222 0.0
1.16179756906 4.1180353746 0.0
1.1790742871 4.12785033813 0.0
1.1960849082 4.13811952024 0.0
1.21281755802 4.14883575334 0.0
1.22926039879 4.15999145532 0.0
1.24540200269 4.17157887342 0.0
1.26123091585 4.18358978512 0.0
1.27673615785 4.19601585877 0.0
1.29190671097 4.20884826442 0.0
1.30673206073 4.22207810803 0.0
1.32120167579 4.23569599189 0.0
1.33530551541 4.24969246611 0.0
1.34903357612 4.26405760374 0.0
1.36237630898 4.27878141198 0.0
1.3753242847 4.29385348652 0.0
1.38786845609 4.30926329506 0.0
1.05632730172 4.46025283906 0.0
0.549964048968 4.4630053958 0.0
0.806135520676 4.31186690218 0.0
0.603895783049 4.26079310371 0.0
1.22984770884 4.38318704125 0.0
0.3703382852 4.38423552752 0.0
0.995322815839 4.25565031136 0.0
0.728315816804 4.1765935937 0.0
0.872128173905 4.17288724072 0.0
1.14059401893 4.27298468684 0.0
0.461553191009 4.27181671009 0.0
0.784706775856 4.56821390922 0.0
0.398287125272 4.57945970538 0.0
1.20625306554 4.58334743514 0.0
0.624100842742 4.1589824436 0.0
0.5257453845 4.18811776279 0.0
0.978502430793 4.15488737058 0.0
1.07419209812 4.18825154482 0.0
0.364313698077 4.28677035763 0.0
1.23509538257 4.28681716733 0.0
0.68124123937 4.39284548972 0.0
1.31679378691 4.35012066749 0.0
0.283206213094 4.35012066749 0.0
0.791498533126 4.11467141721 0.0
0.931481076052 4.3801344917 0.0
0.966719065571 4.62778042839 0.0
0.684451667517 4.11068036752 0.0
0.618335406951 4.62686910993 0.0
0.450982331762 4.19686171732 0.0
0.915674266355 4.10995633851 0.0
1.14900051594 4.19689012964 0.0
1.30193709687 4.4481448133 0.0
0.298574667609 4.44816296922 0.0
1.05734787542 4.34990107617 0.0
0.539273225177 4.35252599628 0.0
0.709896798149 4.27721026287 0.0
0.895708916005 4.26924194389 0.0
0.813273511364 4.43835766235 0.0
0.559289631452 4.13230879113 0.0
1.04001407307 4.13281539633 0.0
0.801161810585 4.23146244955 0.0
0.665113819616 4.52056650186 0.0
0.852577362173 4.09111846388 0.0
0.390256727869 4.2242806298 0.0
1.20974450479 4.22428104599 0.0
0.921542541183 4.52778058719 0.0
1.14030889032 4.36437344809 0.0
1.15600477272 4.46808538305 0.0
0.435243219029 4.4750581257 0.0
0.462045157798 4.36654654286 0.0
0.735806812738 4.08472269746 0.0
1.30082934537 4.29793772796 0.0
0.299170654625 4.29793772796 0.0
0.533651712118 4.26265983853 0.0
0.666130919144 4.21652131559 0.0
1.0676097303 4.26179469382 0.0
1.08054433577 4.58530946155 0.0
0.506773767255 4.56568295079 0.0
0.626745312844 4.10124420826 0.0
0.933845304214 4.2106954732 0.0
0.293717639664 4.55175000185 0.0
0.312505022079 4.66426411351 0.0
1.3058164124 4.55154930624 0.0
1.29054387065 4.66302765963 0.0
0.973467966326 4.09941619478 0.0
0.487935413164 4.15087084015 0.0
0.461549079751 4.68836834982 0.0
1.11203248746 4.15093503889 0.0
1.14453515393 4.70617370303 0.0
0.840217564202 4.68891146633 0.0
0.585347033288 4.20539048534 0.0
0.619177396637 4.34227576306 0.0
0.331644410315 4.24962190462 0.0
1.26835558968 4.24962190462 0.0
1.01536156978 4.19987473052 0.0
0.809331033562 4.07065709122 0.0
0.982321540791 4.33437358971 0.0
0.725600576914 4.66999651799 0.0
0.812291456186 4.16642942492 0.0
0.335887692543 4.33918235669 0.0
1.26344844681 4.34017131907 0.0
1.23449730504 4.49457441524 0.0
1.34334172095 4.40539551957 0.0
0.256658279045 4.40539551957 0.0
0.741646926828 4.34287908527 0.0
0.674799084703 4.16673768522 0.0
1.18647435526 4.30955189749 0.0
0.360563250283 4.49596479569 0.0
0.873716483853 4.33845499203 0.0
0.418704489949 4.31146264283 0.0
0.492670911224 4.22931614809 0.0
0.403480880356 4.19046776931 0.0
1.19651541215 4.1904686246 0.0
0.728649253738 4.46214546491 0.0
1.00883674467 4.40174664879 0.0
1.11035034557 4.23161841276 0.0
0.261968539765 4.3130079512 0.0
1.33803146023 4.3130079512 0.0
0.74649980488 4.1318354354 0.0
0.927597725248 4.1577597079 0.0
0.892956618256 4.07619338913 0.0
0.659794281787 4.07951387326 0.0
0.587663534405 4.09486537006 0.0
0.942353209926 4.07935300973 0.0
1.01493747319 4.09476013719 0.0
0.613130017774 4.41369803882 0.0
0.449373501074 4.15377191978 0.0
0.514840228377 4.12225850006 0.0
0.497057592 4.41333092106 0.0
1.15061382426 4.15379293084 0.0
1.08514419473 4.12228328152 0.0
0.745617635771 4.23098957592 0.0
0.87523452213 4.59853036549 0.0
0.855262884783 4.2258970831 0.0
1.01126200032 4.53280064162 0.0
1.09391916408 4.40632408872 0.0
1.04436265455 4.71482000827 0.0
0.314320181089 4.38773968607 0.0
1.28649331902 4.38743720145 0.0
0.771211579291 4.06316862024 0.0
0.432259099658 4.24006002157 0.0
0.698583889427 4.07144353526 0.0
1.16802128371 4.238862881 0.0
1.09587629216 4.3086676659 0.0
1.35920470355 4.35666960471 0.0
0.240795296449 4.35666960471 0.0
0.504003580654 4.30815758118 0.0
0.579942709371 4.5342075073 0.0
0.875915224914 4.12815792528 0.0
0.426503136644 4.40717733008 0.0
0.57541416445 4.30365301522 0.0
0.683877978289 4.33161848113 0.0
0.888061695889 4.44633509246 0.0
0.26012287522 4.49859249103 0.0
1.33987712478 4.49859249103 0.0
0.801393572636 4.37060096582 0.0
0.558460082533 4.72496728209 0.0
1.1741923373 4.41132830101 0.0
0.83220012886 4.12779415912 0.0
1.02815069622 4.30053276509 0.0
0.948308583502 4.2880204454 0.0
0.846588933095 4.50834596945 0.0
0.343666800815 4.43485820652 0.0
1.25632767671 4.43480360053 0.0
0.97849585731 4.47031535602 0.0
1.10170977548 4.51507265998 0.0
0.662193131828 4.26809398492 0.0
0.400503668388 4.26881657105 0.0
1.20117145985 4.26130427377 0.0
0.350957892513 4.21796558019 0.0
1.24904210749 4.21796558019 0.0
0.771964652188 4.18905379403 0.0
0.932165148285 4.72736281402 0.0
0.373672364094 4.73321357765 0.0
0.760245937722 4.28409350779 0.0
0.848718469252 4.05767763075 0.0
1.23385612561 4.7358294747 0.0
0.846421485813 4.28065918421 0.0
0.651597058631 4.13043284014 0.0
0.650489852552 4.72138045504 0.0
0.58457834847 4.16375088261 0.0
0.48701309933 4.18859927013 0.0
0.708495738406 4.58856947756 0.0
1.11203398596 4.18878062515 0.0
0.54865558244 4.10250047869 0.0
1.05126102377 4.10234629471 0.0
0.300013757486 4.26259646442 0.0
1.29998624251 4.26259646442 0.0
0.9465032388 4.12718070354 0.0
0.708587583337 4.14146095907 0.0
0.973348904468 4.19537871864 0.0
0.628721855632 4.19538356945 0.0
0.380175010018 4.34021880077 0.0
0.662092932411 4.45899041267 0.0
1.05133526787 4.22221992007 0.0
0.528087045766 4.64327882187 0.0
1.22233124543 4.33521693908 0.0
1.19001193434 4.36273586668 0.0
0.853024099244 4.39544003492 0.0
0.542800296246 4.22324366905 0.0
0.247706318737 4.45239119247 0.0
1.35229368126 4.45239119247 0.0
0.599153768578 4.12953797005 0.0
1.01616570494 4.16227683178 0.0
0.744705786938 4.40569544575 0.0
1.31929001115 4.73702550052 0.0
0.777615355331 4.15113602511 0.0
1.33132411895 4.60631378639 0.0
0.265621610877 4.60975488866 0.0
0.532023338888 4.15374454388 0.0
1.0697792195 4.15241429251 0.0
0.286371037106 4.73010312914 0.0
0.497725885905 4.50153668256 0.0
0.46053455822 4.31587947599 0.0
0.433799237968 4.54629400991 0.0
0.388624781906 4.65094200004 0.0
0.554823673752 4.40451940232 0.0
1.1421595646 4.31818301431 0.0
1.14760043966 4.61655103139 0.0
1.21258698805 4.65320200685 0.0
1.16279096046 4.53292621409 0.0
0.995762647814 4.12508772517 0.0
0.456229040627 4.61456685246 0.0
0.707289391156 4.21520271873 0.0
0.763036833302 4.74285445535 0.0
0.78386198569 4.49787013126 0.0
[...]
POINT_DATA 999
VECTORS Displacement float
0.397317985373 -0.196216738836 0
0.402769523844 -0.196175351942 0
0.4 -0.2 0
0.4 -0.2 0
0.403004979499 -0.19615909734 0
0.403230997786 -0.196137970825 0
0.403433153266 -0.196113714292 0
0.403604642072 -0.196106461772 0
0.403708773104 -0.196125892777 0
0.403774576584 -0.196182603741 0
0.403742399658 -0.196285292912 0
0.403604902277 -0.196443762873 0
0.403346515503 -0.196699680354 0
0.40291551721 -0.197078071446 0
0.402290300004 -0.197645482596 0
0.401387340554 -0.198504545562 0
0.4 -0.2 0
0.4 -0.2 0
0.4 -0.2 0
0.4 -0.2 0
0.4 -0.2 0
0.4 -0.2 0
0.4 -0.2 0
0.4 -0.2 0
0.4 -0.2 0
0.4 -0.2 0
0.4 -0.2 0
0.4 -0.2 0
0.4 -0.2 0
0.4 -0.2 0
0.4 -0.2 0
0.4 -0.2 0
0.4 -0.2 0
0.398633977558 -0.198526306375 0
0.397741798843 -0.197675367386 0
0.397097659176 -0.197110528663 0
0.39668967642 -0.196730995869 0
0.396442192634 -0.196475942091 0
0.396310101795 -0.196319081278 0
0.396283876964 -0.196219234707 0
0.396355791835 -0.196164302928 0
0.396465528533 -0.196146045696 0
0.396642057663 -0.196154082522 0
0.396848767986 -0.196178843799 0
0.39707888131 -0.196200306738 0
0.39751549265 -0.196087040678 0
0.397732630421 -0.19594201466 0
0.397967111049 -0.195773091139 0
0.398223639328 -0.195580715477 0
0.398501080028 -0.195356693914 0
0.398791359085 -0.195095619531 0
0.399098990024 -0.194800321382 0
0.399436653214 -0.194466999482 0
0.399801263331 -0.194065587688 0
0.400173509477 -0.193627966498 0
0.400573475069 -0.193119323869 0
0.401023269595 -0.192526966123 0
0.40149952572 -0.191799787628 0
0.402032243618 -0.190891849973 0
0.40254142361 -0.189789931049 0
0.402954213973 -0.18870278853 0
0.403269951408 -0.187636741068 0
0.403503465256 -0.186575941097 0
0.403658726848 -0.185583824553 0
0.403753661453 -0.18461085087 0
0.403791276017 -0.183691812554 0
0.403763654617 -0.182794190995 0
0.403675619199 -0.182010374215 0
0.403541903303 -0.181259218513 0
0.403370465199 -0.180573757654 0
0.403151949779 -0.179941386371 0
0.402906176857 -0.17937753538 0
0.402624983144 -0.178876241051 0
0.402327011249 -0.178438579671 0
0.401996613267 -0.17805604868 0
0.401650272541 -0.177744444438 0
0.401279308329 -0.177489233192 0
0.400901108135 -0.177297607463 0
0.400509282269 -0.177163392913 0
0.40007588858 -0.177051296618 0
0.39964242291 -0.177178176139 0
0.399242424531 -0.17730938092 0
0.398860726942 -0.1774974041 0
0.398494792576 -0.177748529174 0
0.398145406 -0.178059126559 0
0.397812234107 -0.178435519914 0
0.397502067855 -0.178881639093 0
0.397229475172 -0.179379213755 0
0.396984010339 -0.179943249151 0
0.396764668874 -0.180573090843 0
0.396589682926 -0.181253123766 0
0.396446622235 -0.181990481286 0
0.396369595921 -0.182819285196 0
0.396343538989 -0.183708560002 0
0.396381314524 -0.184622647271 0
0.39647354352 -0.185586869318 0
0.396631862693 -0.186584322154 0
0.396860414268 -0.187633075655 0
0.397175874176 -0.188699553214 0
0.397578439461 -0.189775197384 0
0.398099690757 -0.19090344015 0
0.398635389067 -0.191809351927 0
0.39910407687 -0.192521233252 0
0.399549072228 -0.193106718893 0
0.399944920951 -0.193610751131 0
0.400313499436 -0.19404479692 0
0.400674569006 -0.194443060258 0
0.401008994132 -0.194773718712 0
0.401313571438 -0.195066582731 0
0.401600896738 -0.195325357142 0
0.401875360621 -0.19554718925 0
0.402128938385 -0.195737508998 0
0.402360522739 -0.195904489018 0
0.402574838954 -0.196047615687 0
0.402424951359 -0.192458612643 0
0.397691183196 -0.192447193859 0
0.400091143012 -0.185904980665 0
0.399074417755 -0.186203359946 0
0.40319338537 -0.193941728848 0
0.396880379026 -0.193963843727 0
0.40097336374 -0.186036273691 0
0.400170113576 -0.181833420203 0
0.399921477046 -0.181726071786 0
0.401877780072 -0.19027217664 0
0.398246467433 -0.190190207551 0
0.399888431214 -0.193765927162 0
0.397180107386 -0.196288623396 0
0.402847381913 -0.196369892569 0
0.400637197427 -0.182853964816 0
0.40009322527 -0.186310499915 0
0.399398688598 -0.182801882913 0
0.400030453379 -0.186311379334 0
0.397839650691 -0.193222230103 0
0.402255183441 -0.193190992027 0
0.398901681329 -0.189039573389 0
0.403054089496 -0.195151862862 0
0.397028602593 -0.195178931236 0
0.400134881689 -0.179641630123 0
0.401269411836 -0.188774950268 0
0.401254184579 -0.195751165311 0
0.40107992585 -0.180399359939 0
0.398667074956 -0.195798247291 0
0.399754170787 -0.189281235712 0
0.399036201035 -0.180378628493 0
0.400363808101 -0.189279828358 0
0.403591896781 -0.195514940921 0
0.396473858287 -0.195534107683 0
0.402169074959 -0.189833245186 0
0.397876962375 -0.189965862893 0
0.399520512349 -0.185172869838 0
0.400568346718 -0.184974480304 0
0.400169551311 -0.189941040492 0
0.401539462792 -0.183845020418 0
0.398606849467 -0.183836181348 0
0.400057299088 -0.183285075897 0
0.398733759809 -0.192833125993 0
0.399481273366 -0.17914605499 0
0.399013506112 -0.191996887427 0
0.40109517346 -0.191991695413 0
0.401184595701 -0.192949549392 0
0.40275345878 -0.191886510015 0
0.403058368731 -0.193991006113 0
0.396951377836 -0.194235082879 0
0.397329116023 -0.19187801457 0
0.400833602052 -0.179058110857 0
0.402423824703 -0.194725249439 0
0.397668718413 -0.194750329505 0
0.398695444167 -0.187900073903 0
0.399798425441 -0.183794669129 0
0.401401543402 -0.187909159262 0
0.402202111987 -0.195474531842 0
0.397660211216 -0.195174688832 0
0.401801946539 -0.181221929426 0
0.400253030372 -0.183616314587 0
0.396632886568 -0.196484345612 0
0.397643658704 -0.197797194213 0
0.403414800403 -0.196462968347 0
0.402410462008 -0.197769907242 0
0.398289250191 -0.181180380561 0
0.40123373184 -0.186867639693 0
0.398357682797 -0.197766495552 0
0.398891989368 -0.186870378291 0
0.401504781754 -0.198096777971 0
0.400251422179 -0.196946142198 0
0.399800686622 -0.185050205478 0
0.398529635347 -0.188280974983 0
0.398494890436 -0.193901889801 0
0.401607431808 -0.193882757566 0
0.400215333721 -0.184915930854 0
0.3999417196 -0.178358616358 0
0.401525361464 -0.188080913645 0
0.399529651403 -0.196522856481 0
0.400027146144 -0.18123028258 0
0.397165614554 -0.194221820547 0
0.402927262474 -0.194196226402 0
0.403377929675 -0.195335726553 0
0.403495088593 -0.195668888816 0
0.396577299812 -0.195699395009 0
0.39954544523 -0.187054740249 0
0.400378371883 -0.182161740574 0
0.4024820334 -0.192131350067 0
0.396653381551 -0.195414172971 0
0.400662118277 -0.187002182402 0
0.397602778549 -0.192031929684 0
0.399084055823 -0.188353516734 0
0.399907632835 -0.191230254161 0
0.400211257723 -0.1912289912 0
0.399315578276 -0.190821718222 0
0.40199488629 -0.190336999139 0
0.401079980584 -0.188503169115 0
0.39746181574 -0.195416370007 0
0.402627658303 -0.19538515248 0
0.400398966025 -0.18033626282 0
0.399621273245 -0.181929562668 0
0.398842253932 -0.179134419105 0
0.401863971279 -0.179962684796 0
0.402379435161 -0.182058851647 0
0.398239533765 -0.180002726848 0
0.397718045009 -0.182130465757 0
0.398246284751 -0.190374875288 0
0.401199248364 -0.188641435408 0
0.402157141624 -0.185179188274 0
0.397349740034 -0.192125929586 0
0.39892427705 -0.188637970838 0
0.397971576864 -0.185186641232 0
0.399894490033 -0.183429826864 0
0.40065097192 -0.194682402371 0
0.400196639326 -0.183272129632 0
0.401930298113 -0.193726347819 0
0.402644333666 -0.191815632282 0
0.401108759427 -0.197955586943 0
0.3967488338 -0.194912567999 0
0.403326289307 -0.194900082837 0
0.40049084066 -0.178211982028 0
0.398709090082 -0.190651438892 0
0.401470603286 -0.179117502384 0
0.401374233519 -0.190640938201 0
0.402098187272 -0.189741712329 0
0.403132127886 -0.195715994445 0
0.396949394695 -0.195749956906 0
0.398000056438 -0.189738057908 0
0.398057930485 -0.193840523288 0
0.399554581701 -0.180410335668 0
0.396977050354 -0.193260873971 0
0.39847634421 -0.187975822395 0
0.399099247985 -0.187139053593 0
0.400920358682 -0.19042449102 0
0.396380321106 -0.196151632523 0
0.403672430312 -0.196125884536 0
0.400053976227 -0.187800261885 0
0.399004308036 -0.198143173731 0
0.40310539037 -0.193332222123 0
0.399846264405 -0.180093495888 0
0.401615562724 -0.187963949749 0
0.40099310072 -0.186193790362 0
0.400491003752 -0.192100008151 0
0.396609235032 -0.194904204801 0
0.403457435207 -0.194885284726 0
0.401768745257 -0.191819948276 0
0.402637507635 -0.194211180257 0
0.39931132252 -0.185434166631 0
0.398146955271 -0.192041034189 0
0.401826748267 -0.192013492111 0
0.399190332568 -0.193285243906 0
0.400919242738 -0.193270720801 0
0.400069646376 -0.181974645107 0
0.400587335583 -0.19796913145 0
0.39867062754 -0.198712098606 0
0.399803729892 -0.185077833558 0
0.399309687969 -0.178195528374 0
0.401314408482 -0.198754243715 0
0.400326940057 -0.184993527572 0
0.401019596197 -0.181499314965 0
0.399326166953 -0.19787137352 0
0.400638645777 -0.183932022162 0
0.400036563565 -0.187697564097 0
0.39924311726 -0.194469670675 0
0.400084328187 -0.187661456163 0
0.402565140201 -0.183480464343 0
0.397563454767 -0.183482461289 0
0.398253657488 -0.194672172469 0
0.401845987601 -0.194647070708 0
0.399057763154 -0.181378257066 0
0.400539974606 -0.180971853562 0
0.400098709497 -0.183846571038 0
0.400019685912 -0.183806110026 0
0.397226285757 -0.193305879403 0
0.398666574982 -0.191142724529 0
0.400706440559 -0.186462078952 0
0.398241571202 -0.196615772076 0
0.402819386071 -0.193295802852 0
0.402949942263 -0.192917948786 0
0.400551696608 -0.188699063791 0
0.399371389228 -0.186659096243 0
0.396378583307 -0.195957622995 0
0.40368458748 -0.19592692837 0
0.401372341032 -0.182639154975 0
0.399448882477 -0.183907561861 0
0.399494992193 -0.189027201103 0
0.401449021924 -0.198736647873 0
0.400152339835 -0.180772351159 0
0.403119610755 -0.197038528808 0
0.396934016896 -0.197094395242 0
0.401024772976 -0.18526409801 0
0.399054336021 -0.185298558807 0
0.398483738748 -0.198666043109 0
0.397372332811 -0.19394480471 0
0.397710488242 -0.191002938832 0
0.3971535096 -0.195467028087 0
0.397739492917 -0.197443969157 0
0.397783729018 -0.19096565539 0
0.402416473789 -0.191108411407 0
0.402348190373 -0.196546052547 0
0.402268907918 -0.19747341764 0
0.402934166258 -0.195194141463 0
0.398681370521 -0.182384347409 0
0.397690451035 -0.196492072109 0
0.399892295036 -0.183237771522 0
0.399859118486 -0.198224710196 0
0.399869472405 -0.191748833192 0
0.401068156719 -0.187289457642 0
0.400883874626 -0.190202070932 0
0.400183001758 -0.183086691268 0
0.39924289399 -0.190201470967 0
0.403547546118 -0.195823136404 0
0.401079285647 -0.17841734011 0
0.397878302542 -0.194081248139 0
0.402217381502 -0.194061157747 0
0.399808047974 -0.192480714353 0
0.400307809733 -0.192473154737 0
0.398178094177 -0.192118190416 0
0.397087855868 -0.192987900773 0
0.400428677587 -0.179112539632 0
0.399209924233 -0.193019714914 0
0.398419476204 -0.192988985781 0
0.401683320421 -0.192973700109 0
0.396515981611 -0.19579659422 0
0.403311572361 -0.19445071486 0
0.400673393884 -0.184997914858 0
0.397883731785 -0.19522397986 0
0.402211427937 -0.19519421905 0
0.401635647068 -0.197052495493 0
0.396764758331 -0.194451942961 0
0.397228857043 -0.19579253258 0
0.402857309522 -0.19575730363 0
0.402401695737 -0.180760507328 0
0.400067954041 -0.182300108235 0
0.402932220827 -0.196925238055 0
0.397092946602 -0.196935965138 0
0.398501269341 -0.188975921338 0
0.400857923993 -0.179931028054 0
0.400065074385 -0.184295878406 0
0.39984557987 -0.179207757076 0
0.402479680193 -0.190834665041 0
0.401622615536 -0.189030960705 0
0.398874801112 -0.186874247032 0
0.398344217921 -0.1791017802 0
0.397766874379 -0.180797428216 0
0.40279871556 -0.193293597347 0
0.397212019601 -0.194774964199 0
0.402874280933 -0.194749783501 0
0.401295705034 -0.194255578007 0
0.39759540814 -0.190864036894 0
0.399024162514 -0.186609201954 0
0.399685298788 -0.184969301977 0
0.398623682994 -0.194225964197 0
0.39988136329 -0.195870775855 0
0.402060208372 -0.186937399156 0
0.398067419173 -0.186939699111 0
0.398936905341 -0.189500292098 0
0.401088182879 -0.189458246368 0
0.396476502652 -0.196475687015 0
0.403571490642 -0.196449789894 0
0.399418244322 -0.185167015407 0
0.401122308871 -0.186764767534 0
0.40027624488 -0.185233451349 0
0.401733472169 -0.19543554756 0
0.398927195706 -0.178448296727 0
0.401410220538 -0.19048834475 0
0.40336355343 -0.195852813449 0
0.39671314191 -0.195887887902 0
0.399490434077 -0.190523235868 0
0.399244057305 -0.179682790321 0
0.400624748931 -0.190520484469 0
0.399620771545 -0.184316595362 0
0.400722712372 -0.196365124445 0
0.40086223509 -0.198854763548 0
0.402326508124 -0.190937376709 0
0.398120522843 -0.18949688839 0
0.403352665151 -0.19528363382 0
0.396723463492 -0.195310425472 0
0.40322968114 -0.196134306781 0
0.396802653237 -0.196110388252 0
0.399478251134 -0.18104434346 0
0.402119691449 -0.191338684096 0
0.401987834095 -0.179154539447 0
0.400171859255 -0.17776150448 0
0.399906682132 -0.181058126422 0
0.397087173088 -0.193218732477 0
0.397986918191 -0.191497990266 0
0.399021481856 -0.193957897991 0
0.401086068858 -0.193938093691 0
0.400338605997 -0.187183999641 0
0.40041794044 -0.184049801126 0
0.399643417425 -0.177954929236 0
0.402423109439 -0.197819582363 0
0.397437371984 -0.193867529605 0
0.402635024676 -0.193850722886 0
0.401817816735 -0.189034649561 0
0.397414227999 -0.197644688988 0
0.399196509017 -0.198927943899 0
0.402896754734 -0.192485322405 0
0.398131554077 -0.195581390453 0
0.400352820544 -0.18280810975 0
0.401618708412 -0.189060789008 0
0.401791844173 -0.188650912132 0
0.400481525855 -0.184900077019 0
0.401310574817 -0.187020352169 0
0.398567255615 -0.189122352023 0
0.396891632339 -0.195180956536 0
0.401488165837 -0.180762538412 0
0.401234431837 -0.182102851509 0
0.396967568841 -0.19475851714 0
0.403112877313 -0.194750342972 0
0.398694933927 -0.194447557685 0
0.401409163292 -0.194424071353 0
0.399909700194 -0.182198551836 0
0.402355450509 -0.192619495307 0
0.40233449791 -0.193672915887 0
0.399782534357 -0.182834989838 0
0.398278909485 -0.188711087237 0
0.399575240751 -0.185790981924 0
0.397508407173 -0.192874263359 0
0.397176957257 -0.195503515872 0
0.402908291441 -0.195472094651 0
0.400254432259 -0.198417087982 0
0.400666830486 -0.186324670783 0
0.400632581431 -0.187935758188 0
0.397187055823 -0.192470411221 0
0.400571552053 -0.18574643055 0
0.398599255494 -0.180739678811 0
0.39736267678 -0.192911254455 0
0.400668800405 -0.187176423372 0
0.400890892403 -0.199060960355 0
0.40295431166 -0.182610072162 0
0.399499044831 -0.18794345348 0
0.399179801911 -0.196180977399 0
0.400227118001 -0.181049099268 0
0.399544862631 -0.186450502009 0
0.399926473338 -0.184059461527 0
0.402906704185 -0.184205391898 0
0.39713956793 -0.182607929262 0
0.39949395031 -0.187164602917 0
0.397224183229 -0.184216230714 0
0.400045940314 -0.180399401373 0
0.400190173929 -0.183996897548 0
0.400232389192 -0.178671631707 0
0.403607819725 -0.195910829007 0
0.396461045939 -0.195944215647 0
0.402846690758 -0.181155479921 0
0.40250434378 -0.18002889959 0
0.399722718388 -0.19878591241 0
0.397645912142 -0.180027262908 0
0.39728526204 -0.18118696261 0
0.402727317435 -0.186055656324 0
0.402227116992 -0.187899981869 0
0.400136339015 -0.182395415249 0
0.397403893423 -0.186060980521 0
0.397899038945 -0.187898162503 0
0.403220677701 -0.194820406584 0
0.401460293311 -0.196595333588 0
0.399869186703 -0.186891647861 0
0.400900030238 -0.177905489948 0
0.398721686334 -0.179679416713 0
0.401512509307 -0.178363014484 0
0.400741428287 -0.181237103761 0
0.403017133398 -0.193823048939 0
0.403349703445 -0.195580317245 0
0.396727037358 -0.19561107857 0
0.397702666061 -0.193604327534 0
0.403497187433 -0.19527490727 0
0.396573119491 -0.195298926678 0
0.40037114685 -0.193590566125 0
0.399389744506 -0.185590945616 0
0.400528293787 -0.198763536013 0
0.399615715044 -0.178693227176 0
0.400837899189 -0.188383492252 0
0.400590180358 -0.191718418396 0
0.399534137163 -0.191720285643 0
0.396897485297 -0.194381470809 0
0.400845235373 -0.186124494932 0
0.398402713507 -0.182951613314 0
0.400285409812 -0.183781130115 0
0.402564124313 -0.19562012943 0
0.400018800745 -0.182496122482 0
0.399241765175 -0.186033975069 0
0.401475449466 -0.179784503469 0
0.400058992955 -0.182136525166 0
0.396795998061 -0.194045071975 0
0.399115831113 -0.189754363664 0
0.39965406029 -0.179992114735 0
0.399717110751 -0.190214583051 0
0.399178300031 -0.187882135707 0
0.401967402161 -0.184274302279 0
0.400188446671 -0.190098653814 0
0.399933284048 -0.190097146252 0
0.398165509599 -0.184280553064 0
0.400330003642 -0.186074040053 0
0.400559967947 -0.179592673275 0
0.402048907808 -0.183074932112 0
0.403537373859 -0.195373780227 0
0.396527066836 -0.19536539617 0
0.399199487435 -0.199139613188 0
0.399778440479 -0.183781751815 0
0.403269349192 -0.194009824052 0
0.400316617998 -0.179752242893 0
0.398474544135 -0.178590231661 0
0.39728102244 -0.195148069808 0
0.40280549609 -0.195120133937 0
0.397665098194 -0.195655535545 0
0.402427204226 -0.195621423047 0
0.399226542401 -0.17910476783 0
0.397315087198 -0.192282255353 0
0.401788112232 -0.181971357638 0
0.403150433132 -0.195771566487 0
0.400722345756 -0.185898105774 0
0.398797790357 -0.181690124676 0
0.403180619607 -0.194365248154 0
0.39708307047 -0.195949856981 0
0.403000781041 -0.195912631268 0
0.400769852068 -0.193179326617 0
0.40206622128 -0.191550889221 0
0.401407091814 -0.185798603216 0
0.397517073152 -0.194357344785 0
0.402573538139 -0.194334927622 0
0.398594934635 -0.191574154801 0
0.40000634868 -0.182863711092 0
0.401467737269 -0.191592695357 0
0.400717559575 -0.185189822389 0
0.400742725695 -0.178525363282 0
0.397594999637 -0.191069322942 0
0.398727460475 -0.185832143836 0
0.399396009844 -0.191353940812 0
0.400717716964 -0.191350345747 0
0.401643416947 -0.193089248153 0
0.398649732494 -0.18934050943 0
0.399127700136 -0.199246865485 0
0.398279069793 -0.195059596368 0
0.401820686839 -0.195031101982 0
0.401037668411 -0.179366337387 0
0.40153301106 -0.189491530425 0
0.398592093219 -0.189485527597 0
0.399739120434 -0.184485484326 0
0.400099909731 -0.182923804375 0
0.399369441782 -0.198587936642 0
0.399487855829 -0.18867616878 0
0.398968063357 -0.191717939594 0
0.402712338317 -0.192054070708 0
0.400530364468 -0.19082691317 0
0.400631462944 -0.188731811609 0
0.40036579879 -0.184363468799 0
0.403602471536 -0.195664505249 0
0.396464847454 -0.195692382293 0
0.398946749809 -0.18784615208 0
0.398135762691 -0.193571321595 0
0.401960375081 -0.193543813648 0
0.402051005941 -0.190012948114 0
0.398715943371 -0.193385099209 0
0.401371162097 -0.193354188853 0
0.39633335934 -0.196112866652 0
0.40372528914 -0.19608238629 0
0.398808087981 -0.186962019832 0
0.400973351286 -0.19721103562 0
0.403025351907 -0.193291665846 0
0.400895540845 -0.191835468479 0
0.401477293838 -0.189420766736 0
0.400088190639 -0.182526252968 0
0.399775704867 -0.185641968003 0
0.397917801987 -0.179345582808 0
0.402078180795 -0.192687827016 0
0.403350200799 -0.194498559412 0
0.39672019086 -0.194519112547 0
0.397792729834 -0.192238145806 0
0.398049673564 -0.190004714412 0
0.40040874236 -0.184296617361 0
0.398669882356 -0.190161586003 0
0.399728721474 -0.181346499177 0
0.401630421198 -0.189913138051 0
0.401046191806 -0.189483424747 0
0.39966673907 -0.194723160707 0
0.401191974013 -0.18798147203 0
0.402005491069 -0.180531723519 0
0.401895782304 -0.188942069815 0
0.402951967612 -0.192689806199 0
0.400330318469 -0.195697137269 0
0.398347868647 -0.188526999197 0
0.399700830257 -0.187961915459 0
0.398947008145 -0.19735685352 0
0.39832911424 -0.193121450894 0
0.398650015364 -0.187634390742 0
0.399757326173 -0.183933484176 0
0.398764171439 -0.188101725914 0
0.397924555131 -0.191482349821 0
0.398119906736 -0.180525183161 0
0.397939648794 -0.181510691446 0
0.396884482359 -0.195994899523 0
0.403195942102 -0.195957284008 0
0.403675559955 -0.195886495713 0
0.396384044651 -0.195914368845 0
0.400477045905 -0.177681029803 0
0.40036407816 -0.18101318561 0
0.40144439401 -0.187637457422 0
0.399940891567 -0.182774584111 0
0.402084209815 -0.194606486998 0
0.398579883894 -0.197714894633 0
0.403126804344 -0.193462519765 0
0.400303976573 -0.183691718438 0
0.400158384257 -0.185797456199 0
0.401229649168 -0.187226894986 0
0.398557766536 -0.190155667176 0
0.39923770877 -0.181107973946 0