# vtk DataFile Version 2.0
Generated with Solid Solver
ASCII
DATASET UNSTRUCTURED_GRID
POINTS 999 float 
0.2 4.325 0.0
1.4 4.325 0.0
1.4 4.825 0.0
0.2 4.825 0.0
1.4 4.34523264049 0.0
1.4 4.36751203886 0.0
1.4 4.39204525371 0.0
1.4 4.4190602782 0.0
1.4 4.44880817466 0.0
1.4 4.48156541084 0.0
1.4 4.51763640748 0.0
1.4 4.5573564007 0.0
1.4 4.60109451608 0.0
1.4 4.64925723872 0.0
1.4 4.70229217343 0.0
1.4 4.76069218095 0.0
1.33333333333 4.825 0.0
1.26666666667 4.825 0.0
1.2 4.825 0.0
1.13333333333 4.825 0.0
1.06666666667 4.825 0.0
1.0 4.825 0.0
0.933333333334 4.825 0.0
0.866666666668 4.825 0.0
0.800000000001 4.825 0.0
0.733333333334 4.825 0.0
0.666666666668 4.825 0.0
0.600000000001 4.825 0.0
0.533333333334 4.825 0.0
0.466666666667 4.825 0.0
0.4 4.825 0.0
0.333333333334 4.825 0.0
0.266666666667 4.825 0.0
0.2 4.76069218095 0.0
0.2 4.70229217343 0.0
0.2 4.64925723872 0.0
0.2 4.60109451608 0.0
0.2 4.5573564007 0.0
0.2 4.51763640748 0.0
0.2 4.48156541084 0.0
0.2 4.44880817466 0.0
0.2 4.4190602782 0.0
0.2 4.39204525371 0.0
0.2 4.36751203886 0.0
0.2 4.34523264049 0.0
0.212131543907 4.30926329506 0.0
0.224675715302 4.29385348652 0.0
0.23762369102 4.27878141198 0.0
0.250966423879 4.26405760374 0.0
0.264694484585 4.24969246611 0.0
0.278798324214 4.23569599189 0.0
0.293267939266 4.22207810803 0.0
0.308093289028 4.20884826442 0.0
0.323263842145 4.19601585877 0.0
0.338769084145 4.18358978512 0.0
0.354597997314 4.17157887342 0.0
0.37073960121 4.15999145532 0.0
0.387182441982 4.14883575334 0.0
0.403915091795 4.13811952025 0.0
0.420925712897 4.12785033813 0.0
0.438202430937 4.11803537461 0.0
0.455733079095 4.10868154223 0.0
0.473505374364 4.09979539439 0.0
0.491506842655 4.09138316882 0.0
0.509724826085 4.0834507802 0.0
0.528146580414 4.07600377808 0.0
0.546759103951 4.06904741762 0.0
0.56554943677 4.06258654322 0.0
0.584504260001 4.05662573401 0.0
0.60361041518 4.0511691282 0.0
0.622854334779 4.04622060039 0.0
0.642222678753 4.04178358113 0.0
0.661701681839 4.03786122392 0.0
0.681277836375 4.03445624851 0.0
0.700937245817 4.03157107217 0.0
0.720666255912 4.02920769845 0.0
0.740450894784 4.02736780161 0.0
0.76027736978 4.02605266363 0.0
0.780131702711 4.02526321235 0.0
0.799999999998 4.025 0.0
0.819868297285 4.02526321235 0.0
0.839722630216 4.02605266363 0.0
0.859549105212 4.02736780161 0.0
0.879333744085 4.02920769845 0.0
0.89906275418 4.03157107217 0.0
0.918722163621 4.03445624851 0.0
0.938298318157 4.03786122392 0.0
0.957777321244 4.04178358113 0.0
0.977145665218 4.04622060039 0.0
0.996389584817 4.0511691282 0.0
1.01549574 4.05662573401 0.0
1.03445056323 4.06258654322 0.0
1.05324089605 4.06904741762 0.0
1.07185341958 4.07600377808 0.0
1.09027517391 4.0834507802 0.0
1.10849315734 4.09138316882 0.0
1.12649462563 4.09979539439 0.0
1.1442669209 4.10868154222 0.0
1.16179756906 4.1180353746 0.0
1.1790742871 4.12785033813 0.0
1.1960849082 4.13811952024 0.0
1.21281755802 4.14883575334 0.0
1.22926039879 4.15999145532 0.0
1.24540200269 4.17157887342 0.0
1.26123091585 4.18358978512 0.0
1.27673615785 4.19601585877 0.0
1.29190671097 4.20884826442 0.0
1.30673206073 4.22207810803 0.0
1.32120167579 4.23569599189 0.0
1.33530551541 4.24969246611 0.0
1.34903357612 4.26405760374 0.0
1.36237630898 4.27878141198 0.0
1.3753242847 4.29385348652 0.0
1.38786845609 4.30926329506 0.0
1.05632730172 4.46025283906 0.0
0.549964048968 4.4630053958 0.0
0.806135520676 4.31186690218 0.0
0.603895783049 4.26079310371 0.0
1.22984770884 4.38318704125 0.0
0.3703382852 4.38423552752 0.0
0.995322815839 4.25565031136 0.0
0.728315816804 4.1765935937 0.0
0.872128173905 4.17288724072 0.0
1.14059401893 4.27298468684 0.0
0.461553191009 4.27181671009 0.0
0.784706775856 4.56821390922 0.0
0.398287125272 4.57945970538 0.0
1.20625306554 4.58334743514 0.0
0.624100842742 4.1589824436 0.0
0.5257453845 4.18811776279 0.0
0.978502430793 4.15488737058 0.0
1.07419209812 4.18825154482 0.0
0.364313698077 4.28677035763 0.0
1.23509538257 4.28681716733 0.0
0.68124123937 4.39284548972 0.0
1.31679378691 4.35012066749 0.0
0.283206213094 4.35012066749 0.0
0.791498533126 4.11467141721 0.0
0.931481076052 4.3801344917 0.0
0.966719065571 4.62778042839 0.0
0.684451667517 4.11068036752 0.0
0.618335406951 4.62686910993 0.0
0.450982331762 4.19686171732 0.0
0.915674266355 4.10995633851 0.0
1.14900051594 4.19689012964 0.0
1.30193709687 4.4481448133 0.0
0.298574667609 4.44816296922 0.0
1.05734787542 4.34990107617 0.0
0.539273225177 4.35252599628 0.0
0.709896798149 4.27721026287 0.0
0.895708916005 4.26924194389 0.0
0.813273511364 4.43835766235 0.0
0.559289631452 4.13230879113 0.0
1.04001407307 4.13281539633 0.0
0.801161810585 4.23146244955 0.0
0.665113819616 4.52056650186 0.0
0.852577362173 4.09111846388 0.0
0.390256727869 4.2242806298 0.0
1.20974450479 4.22428104599 0.0
0.921542541183 4.52778058719 0.0
1.14030889032 4.36437344809 0.0
1.15600477272 4.46808538305 0.0
0.435243219029 4.4750581257 0.0
0.462045157798 4.36654654286 0.0
0.735806812738 4.08472269746 0.0
1.30082934537 4.29793772796 0.0
0.299170654625 4.29793772796 0.0
0.533651712118 4.26265983853 0.0
0.666130919144 4.21652131559 0.0
1.0676097303 4.26179469382 0.0
1.08054433577 4.58530946155 0.0
0.506773767255 4.56568295079 0.0
0.626745312844 4.10124420826 0.0
0.933845304214 4.2106954732 0.0
0.293717639664 4.55175000185 0.0
0.312505022079 4.66426411351 0.0
1.3058164124 4.55154930624 0.0
1.29054387065 4.66302765963 0.0
0.973467966326 4.09941619478 0.0
0.487935413164 4.15087084015 0.0
0.461549079751 4.68836834982 0.0
1.11203248746 4.15093503889 0.0
1.14453515393 4.70617370303 0.0
0.840217564202 4.68891146633 0.0
0.585347033288 4.20539048534 0.0
0.619177396637 4.34227576306 0.0
0.331644410315 4.24962190462 0.0
1.26835558968 4.24962190462 0.0
1.01536156978 4.19987473052 0.0
0.809331033562 4.07065709122 0.0
0.982321540791 4.33437358971 0.0
0.725600576914 4.66999651799 0.0
0.812291456186 4.16642942492 0.0
0.335887692543 4.33918235669 0.0
1.26344844681 4.34017131907 0.0
1.23449730504 4.49457441524 0.0
1.34334172095 4.40539551957 0.0
0.256658279045 4.40539551957 0.0
0.741646926828 4.34287908527 0.0
0.674799084703 4.16673768522 0.0
1.18647435526 4.30955189749 0.0
0.360563250283 4.49596479569 0.0
0.873716483853 4.33845499203 0.0
0.418704489949 4.31146264283 0.0
0.492670911224 4.22931614809 0.0
0.403480880356 4.19046776931 0.0
1.19651541215 4.1904686246 0.0
0.728649253738 4.46214546491 0.0
1.00883674467 4.40174664879 0.0
1.11035034557 4.23161841276 0.0
0.261968539765 4.3130079512 0.0
1.33803146023 4.3130079512 0.0
0.74649980488 4.1318354354 0.0
0.927597725248 4.1577597079 0.0
0.892956618256 4.07619338913 0.0
0.659794281787 4.07951387326 0.0
0.587663534405 4.09486537006 0.0
0.942353209926 4.07935300973 0.0
1.01493747319 4.09476013719 0.0
0.613130017774 4.41369803882 0.0
0.449373501074 4.15377191978 0.0
0.514840228377 4.12225850006 0.0
0.497057592 4.41333092106 0.0
1.15061382426 4.15379293084 0.0
1.08514419473 4.12228328152 0.0
0.745617635771 4.23098957592 0.0
0.87523452213 4.59853036549 0.0
0.855262884783 4.2258970831 0.0
1.01126200032 4.53280064162 0.0
1.09391916408 4.40632408872 0.0
1.04436265455 4.71482000827 0.0
0.314320181089 4.38773968607 0.0
1.28649331902 4.38743720145 0.0
0.771211579291 4.06316862024 0.0
0.432259099658 4.24006002157 0.0
0.698583889427 4.07144353526 0.0
1.16802128371 4.238862881 0.0
1.09587629216 4.3086676659 0.0
1.35920470355 4.35666960471 0.0
0.240795296449 4.35666960471 0.0
0.504003580654 4.30815758118 0.0
0.579942709371 4.5342075073 0.0
0.875915224914 4.12815792528 0.0
0.426503136644 4.40717733008 0.0
0.57541416445 4.30365301522 0.0
0.683877978289 4.33161848113 0.0
0.888061695889 4.44633509246 0.0
0.26012287522 4.49859249103 0.0
1.33987712478 4.49859249103 0.0
0.801393572636 4.37060096582 0.0
0.558460082533 4.72496728209 0.0
1.1741923373 4.41132830101 0.0
0.83220012886 4.12779415912 0.0
1.02815069622 4.30053276509 0.0
0.948308583502 4.2880204454 0.0
0.846588933095 4.50834596945 0.0
0.343666800815 4.43485820652 0.0
1.25632767671 4.43480360053 0.0
0.97849585731 4.47031535602 0.0
1.10170977548 4.51507265998 0.0
0.662193131828 4.26809398492 0.0
0.400503668388 4.26881657105 0.0
1.20117145985 4.26130427377 0.0
0.350957892513 4.21796558019 0.0
1.24904210749 4.21796558019 0.0
0.771964652188 4.18905379403 0.0
0.932165148285 4.72736281402 0.0
0.373672364094 4.73321357765 0.0
0.760245937722 4.28409350779 0.0
0.848718469252 4.05767763075 0.0
1.23385612561 4.7358294747 0.0
0.846421485813 4.28065918421 0.0
0.651597058631 4.13043284014 0.0
0.650489852552 4.72138045504 0.0
0.58457834847 4.16375088261 0.0
0.48701309933 4.18859927013 0.0
0.708495738406 4.58856947756 0.0
1.11203398596 4.18878062515 0.0
0.54865558244 4.10250047869 0.0
1.05126102377 4.10234629471 0.0
0.300013757486 4.26259646442 0.0
1.29998624251 4.26259646442 0.0
0.9465032388 4.12718070354 0.0
0.708587583337 4.14146095907 0.0
0.973348904468 4.19537871864 0.0
0.628721855632 4.19538356945 0.0
0.380175010018 4.34021880077 0.0
0.662092932411 4.45899041267 0.0
1.05133526787 4.22221992007 0.0
0.528087045766 4.64327882187 0.0
1.22233124543 4.33521693908 0.0
1.19001193434 4.36273586668 0.0
0.853024099244 4.39544003492 0.0
0.542800296246 4.22324366905 0.0
0.247706318737 4.45239119247 0.0
1.35229368126 4.45239119247 0.0
0.599153768578 4.12953797005 0.0
1.01616570494 4.16227683178 0.0
0.744705786938 4.40569544575 0.0
1.31929001115 4.73702550052 0.0
0.777615355331 4.15113602511 0.0
1.33132411895 4.60631378639 0.0
0.265621610877 4.60975488866 0.0
0.532023338888 4.15374454388 0.0
1.0697792195 4.15241429251 0.0
0.286371037106 4.73010312914 0.0
0.497725885905 4.50153668256 0.0
0.46053455822 4.31587947599 0.0
0.433799237968 4.54629400991 0.0
0.388624781906 4.65094200004 0.0
0.554823673752 4.40451940232 0.0
1.1421595646 4.31818301431 0.0
1.14760043966 4.61655103139 0.0
1.21258698805 4.65320200685 0.0
1.16279096046 4.53292621409 0.0
0.995762647814 4.12508772517 0.0
0.456229040627 4.61456685246 0.0
0.707289391156 4.21520271873 0.0
0.763036833302 4.74285445535 0.0
0.78386198569 4.49787013126 0.0
[...]
POINT_DATA 999
VECTORS Displacement float
0.4 1.38668993217e-14 0
0.4 -1.6504748364e-14 0
0.4 0.0 0
0.4 0.0 0
0.4 -1.62310736296e-14 0
0.4 -1.62596026962e-14 0
0.4 -1.59248669167e-14 0
0.4 -1.60559969877e-14 0
0.4 -1.59318047543e-14 0
0.4 -1.55683406268e-14 0
0.4 -1.48186231773e-14 0
0.4 -1.37929115057e-14 0
0.4 -1.23996060473e-14 0
0.4 -1.0963924192e-14 0
0.4 -8.57661041574e-15 0
0.4 -5.07276095749e-15 0
0.4 0.0 0
0.4 0.0 0
0.4 0.0 0
0.4 0.0 0
0.4 0.0 0
0.4 0.0 0
0.4 0.0 0
0.4 0.0 0
0.4 0.0 0
0.4 0.0 0
0.4 0.0 0
0.4 0.0 0
0.4 0.0 0
0.4 0.0 0
0.4 0.0 0
0.4 0.0 0
0.4 0.0 0
0.4 4.17174387211e-15 0
0.4 6.97372019091e-15 0
0.4 9.04673647258e-15 0
0.4 1.05736425607e-14 0
0.4 1.18279662549e-14 0
0.4 1.24394032631e-14 0
0.4 1.24989581005e-14 0
0.4 1.26851383107e-14 0
0.4 1.29545601284e-14 0
0.4 1.33667595092e-14 0
0.4 1.3632350907e-14 0
0.4 1.38186846359e-14 0
0.4 1.3465585352e-14 0
0.4 1.31359712898e-14 0
0.4 1.27638829305e-14 0
0.4 1.22098539213e-14 0
0.4 1.17918315409e-14 0
0.4 1.150700266e-14 0
0.4 1.13230557905e-14 0
0.4 1.09429460637e-14 0
0.4 1.06514566503e-14 0
0.4 1.01636942811e-14 0
0.4 9.73219947135e-15 0
0.4 9.60707461134e-15 0
0.4 9.49691671436e-15 0
0.4 8.96262218223e-15 0
0.4 8.75298497169e-15 0
0.4 8.43003110828e-15 0
0.4 7.93790060917e-15 0
0.4 7.49676227597e-15 0
0.4 6.79784327501e-15 0
0.4 6.55741411084e-15 0
0.4 6.14524206607e-15 0
0.4 5.77817821475e-15 0
0.4 5.30036464717e-15 0
0.4 4.98544525423e-15 0
0.4 4.71272443921e-15 0
0.4 4.43316770744e-15 0
0.4 3.89097613663e-15 0
0.4 3.40333383202e-15 0
0.4 2.76177641472e-15 0
0.4 2.32558291779e-15 0
0.4 1.99712041495e-15 0
0.4 1.69683450079e-15 0
0.4 1.20080780955e-15 0
0.4 1.01200451402e-15 0
0.4 6.26907921991e-16 0
0.4 -7.46811394059e-17 0
0.4 -7.25528594259e-16 0
0.4 -1.20883699431e-15 0
0.4 -1.79473133885e-15 0
0.4 -2.39956842733e-15 0
0.4 -2.97969600654e-15 0
0.4 -3.39578775715e-15 0
0.4 -3.93423298358e-15 0
0.4 -4.41065549101e-15 0
0.4 -4.89615422337e-15 0
0.4 -5.4305755805e-15 0
0.4 -6.21118064754e-15 0
0.4 -6.76459594358e-15 0
0.4 -7.30504655899e-15 0
0.4 -7.66963935809e-15 0
0.4 -7.98441219744e-15 0
0.4 -8.25980110049e-15 0
0.4 -8.64642398718e-15 0
0.4 -8.80365107313e-15 0
0.4 -8.94523933851e-15 0
0.4 -9.6487990042e-15 0
0.4 -1.02250909176e-14 0
0.4 -1.07488972939e-14 0
0.4 -1.1226815053e-14 0
0.4 -1.17273690986e-14 0
0.4 -1.2251783066e-14 0
0.4 -1.261613273e-14 0
0.4 -1.28811320925e-14 0
0.4 -1.33068391378e-14 0
0.4 -1.3908427463e-14 0
0.4 -1.44880408048e-14 0
0.4 -1.49575587772e-14 0
0.4 -1.5369822178e-14 0
0.4 -1.59058772761e-14 0
0.4 -3.77123181389e-15 0
0.4 3.95743467144e-15 0
0.4 3.93887227878e-16 0
0.4 4.7606805089e-15 0
0.4 -9.71818562924e-15 0
0.4 8.25019394037e-15 0
0.4 -4.16151650136e-15 0
0.4 2.37681350113e-15 0
0.4 -1.32161935609e-15 0
0.4 -8.26237425406e-15 0
0.4 7.22646456697e-15 0
0.4 6.44409574195e-16 0
0.4 4.58954882675e-15 0
0.4 -5.21217782133e-15 0
0.4 4.56656840584e-15 0
0.4 6.33376774467e-15 0
0.4 -4.55097836859e-15 0
0.4 -6.92792898812e-15 0
0.4 9.18730350259e-15 0
0.4 -1.08001165074e-14 0
0.4 2.74875881223e-15 0
0.4 -1.27265241847e-14 0
0.4 1.06488337649e-14 0
0.4 7.00547785775e-16 0
0.4 -1.8668616454e-15 0
0.4 -1.12103960377e-15 0
0.4 3.09250326156e-15 0
0.4 1.48387405416e-15 0
0.4 7.80440851594e-15 0
0.4 -2.60144831956e-15 0
0.4 -8.63424792243e-15 0
0.4 -1.10317698687e-14 0
0.4 9.2686102275e-15 0
0.4 -5.19903694882e-15 0
0.4 5.24088786349e-15 0
0.4 2.64028204387e-15 0
0.4 -1.65582690791e-15 0
0.4 3.02134358327e-16 0
0.4 5.69339411405e-15 0
0.4 -6.62181533492e-15 0
0.4 6.50938224678e-16 0
0.4 1.88534541224e-15 0
0.4 -1.23636424628e-15 0
0.4 8.89567535739e-15 0
0.4 -1.01736228605e-14 0
0.4 -1.00553095042e-15 0
0.4 -7.38861928372e-15 0
0.4 -6.01411788881e-15 0
0.4 5.59577426218e-15 0
0.4 6.58638581482e-15 0
0.4 2.01918697732e-15 0
0.4 -1.26208054395e-14 0
0.4 1.04339103028e-14 0
0.4 5.88545752682e-15 0
0.4 3.69276444383e-15 0
0.4 -6.31775794887e-15 0
0.4 -2.59914676332e-15 0
0.4 3.12653928543e-15 0
0.4 4.47736593967e-15 0
0.4 -2.87835309109e-15 0
0.4 7.48718389617e-15 0
0.4 4.5157686226e-15 0
0.4 -9.19836922968e-15 0
0.4 -5.27785667401e-15 0
0.4 -4.37379518956e-15 0
0.4 7.14483367921e-15 0
0.4 2.07854022438e-15 0
0.4 -8.04428983977e-15 0
0.4 -1.86510428894e-15 0
0.4 -1.12181251169e-17 0
0.4 5.28156772919e-15 0
0.4 3.86293608121e-15 0
0.4 1.02444339878e-14 0
0.4 -1.17455335895e-14 0
0.4 -5.26243630786e-15 0
0.4 2.19790127971e-16 0
0.4 -3.37406833054e-15 0
0.4 5.37223231951e-16 0
0.4 1.91377947186e-16 0
0.4 9.42078629116e-15 0
0.4 -1.11079837209e-14 0
0.4 -7.85428111223e-15 0
0.4 -1.33178132626e-14 0
0.4 1.11116781855e-14 0
0.4 1.84332012959e-15 0
0.4 3.50147017681e-15 0
0.4 -9.20131554174e-15 0
0.4 6.87061249686e-15 0
0.4 -1.03558212313e-15 0
0.4 7.87969178561e-15 0
0.4 6.83869493474e-15 0
0.4 8.84267994326e-15 0
0.4 -9.8378729812e-15 0
0.4 1.64580625737e-15 0
0.4 -3.27448886442e-15 0
0.4 -7.70460375461e-15 0
0.4 1.17535636224e-14 0
0.4 -1.38309526849e-14 0
0.4 1.80208037556e-15 0
0.4 -2.82708302071e-15 0
0.4 -2.21681264764e-15 0
0.4 3.628866227e-15 0
0.4 5.04513281785e-15 0
0.4 -3.28516678529e-15 0
0.4 -5.66558535068e-15 0
0.4 3.5082234513e-15 0
0.4 7.97746151401e-15 0
0.4 6.48989497456e-15 0
0.4 5.29063542491e-15 0
0.4 -8.64471666079e-15 0
0.4 -7.79782336823e-15 0
0.4 2.00907494473e-15 0
0.4 -2.84473295765e-16 0
0.4 -8.28448922181e-16 0
0.4 -2.29326718447e-15 0
0.4 -5.58020198307e-15 0
0.4 -9.13875590698e-16 0
0.4 9.58228147473e-15 0
0.4 -1.11989393964e-14 0
0.4 1.39180824801e-15 0
0.4 7.91638411773e-15 0
0.4 2.50011842981e-15 0
0.4 -9.14072081514e-15 0
0.4 -6.66228050712e-15 0
0.4 -1.43757674348e-14 0
0.4 1.21450449018e-14 0
0.4 6.29183149299e-15 0
0.4 2.73365316196e-15 0
0.4 -1.67764401781e-15 0
0.4 6.77983811679e-15 0
0.4 4.85173472125e-15 0
0.4 2.9611999437e-15 0
0.4 -8.19146357002e-16 0
0.4 9.77411885147e-15 0
0.4 -1.1910656579e-14 0
0.4 4.92640759911e-16 0
0.4 9.77231350104e-16 0
0.4 -7.73834553966e-15 0
0.4 -2.5649427202e-16 0
0.4 -4.9478246362e-15 0
0.4 -2.80971074216e-15 0
0.4 -3.51926508477e-18 0
0.4 8.27042944724e-15 0
0.4 -9.51038611236e-15 0
0.4 -2.25789986903e-15 0
0.4 -3.98742490711e-15 0
0.4 3.69740027095e-15 0
0.4 8.45794329354e-15 0
0.4 -9.85972885688e-15 0
0.4 9.89370947993e-15 0
0.4 -1.12664068375e-14 0
0.4 1.20319340184e-15 0
0.4 -3.08455109454e-16 0
0.4 2.00291035084e-15 0
0.4 1.50568163404e-15 0
0.4 -1.05708070414e-15 0
0.4 -2.08344369889e-15 0
0.4 -4.95992050125e-16 0
0.4 3.97774701665e-15 0
0.4 6.32087039662e-16 0
0.4 5.39373802892e-15 0
0.4 6.97683367559e-15 0
0.4 1.14185238468e-15 0
0.4 -7.84807067131e-15 0
0.4 5.79997539994e-15 0
0.4 -6.88810529656e-15 0
0.4 1.08305399822e-14 0
0.4 -1.268006726e-14 0
0.4 -3.47835801812e-15 0
0.4 2.83000900498e-15 0
0.4 -4.10456750497e-15 0
0.4 4.49040793454e-15 0
0.4 8.38872287036e-15 0
0.4 2.54446464203e-15 0
0.4 -6.04908096724e-15 0
0.4 2.01689362064e-15 0
0.4 -1.0156654943e-14 0
0.4 -8.94755289189e-15 0
0.4 -4.90255806495e-16 0
0.4 5.93293137468e-15 0
0.4 1.09675828393e-14 0
0.4 -1.3167034824e-14 0
0.4 5.02416437219e-15 0
0.4 -5.78053222489e-15 0
0.4 1.58337900899e-15 0
0.4 -3.52980469075e-15 0
0.4 9.47536957209e-16 0
0.4 -8.73493464988e-15 0
0.4 7.3405277076e-15 0
0.4 6.20630107404e-15 0
0.4 -7.19608566208e-15 0
0.4 3.28659013685e-15 0
0.4 3.9465808169e-15 0
0.4 7.00441991291e-15 0
0.4 4.37017378004e-15 0
0.4 3.30948431551e-15 0
0.4 4.4289905061e-15 0
0.4 -7.88634636514e-15 0
0.4 -3.3004794967e-15 0
0.4 -3.8612316681e-15 0
0.4 -5.02818346598e-15 0
0.4 -5.18829417578e-15 0
0.4 3.01141971439e-15 0
0.4 2.77314451339e-15 0
0.4 1.36389573879e-16 0
0.4 7.29206975544e-16 0
0.4 -2.01334845851e-15 0
0.4 8.61045190258e-15 0
0.4 -1.65850606432e-15 0
0.4 -9.32360052591e-15 0
0.4 -9.58534307603e-15 0
0.4 1.92969497179e-15 0
0.4 9.89090122827e-15 0
0.4 -1.17063299834e-14 0
0.4 9.35301398663e-15 0
0.4 -1.06312361427e-14 0
0.4 3.00403885343e-15 0
0.4 7.43950242701e-15 0
0.4 1.38416250785e-15 0
0.4 1.35487248459e-15 0
0.4 9.43515313671e-15 0
0.4 -1.07255662725e-14 0
0.4 7.91356140467e-15 0
0.4 -7.90494194511e-15 0
0.4 -3.24422629666e-15 0
0.4 1.15067034607e-14 0
0.4 -1.35508354872e-14 0
0.4 -1.68145004659e-15 0
0.4 6.90946895344e-15 0
0.4 1.26003291537e-14 0
0.4 -1.4748142309e-14 0
0.4 4.56997889475e-15 0
0.4 -5.01983984706e-16 0
0.4 -6.34452808879e-15 0
0.4 5.29942859276e-15 0
0.4 6.4206457258e-15 0
0.4 2.55750328884e-15 0
0.4 6.08708230396e-16 0
0.4 -1.94544061062e-16 0
0.4 -6.41630951444e-15 0
0.4 -7.20864944412e-15 0
0.4 4.04395751057e-15 0
0.4 -2.80707637977e-15 0
0.4 -4.46000274296e-15 0
0.4 -5.12213985247e-15 0
0.4 1.0244739609e-14 0
0.4 -1.21217259555e-14 0
0.4 -1.20063556141e-15 0
0.4 6.02169799691e-15 0
0.4 5.19314644023e-15 0
0.4 -6.2727541841e-15 0
0.4 1.76323754543e-15 0
0.4 4.34657066628e-16 0
0.4 7.39049346198e-15 0
0.4 -8.34723733403e-15 0
0.4 7.4030359855e-15 0
0.4 -8.38392544745e-15 0
0.4 9.17065650477e-15 0
0.4 -1.12544659996e-14 0
0.4 4.48074789944e-15 0
0.4 -5.17258431326e-15 0
0.4 5.88953361102e-15 0
0.4 -1.79346737129e-15 0
0.4 -1.70454307282e-15 0
0.4 -1.72043982375e-15 0
0.4 -1.47310971354e-14 0
0.4 1.22046825237e-14 0
0.4 8.32201264667e-15 0
0.4 -1.78500932033e-15 0
0.4 -9.25039429612e-15 0
0.4 3.23873973705e-15 0
0.4 -4.08074715659e-16 0
0.4 -8.72615340474e-16 0
0.4 -4.55678561209e-15 0
0.4 4.46549803115e-15 0
0.4 -1.2325052125e-14 0
0.4 1.03693286594e-14 0
0.4 -7.06648800302e-15 0
0.4 6.01158541045e-15 0
0.4 -2.35053709684e-15 0
0.4 -8.93157616047e-15 0
0.4 3.05962385378e-15 0
0.4 7.43730900452e-16 0
0.4 -5.07973541499e-16 0
0.4 5.56428664943e-15 0
0.4 7.97473936614e-15 0
0.4 1.03658496446e-14 0
0.4 -1.18729595721e-14 0
0.4 -2.78581455008e-16 0
0.4 -2.18515037692e-15 0
0.4 -2.87260776247e-16 0
0.4 -6.75486569802e-15 0
0.4 9.27238743709e-15 0
0.4 -1.11856096368e-14 0
0.4 -3.74248646537e-15 0
0.4 6.13741670075e-15 0
0.4 9.05246001317e-16 0
0.4 -6.8291628851e-15 0
0.4 2.22595461319e-15 0
0.4 4.07858204112e-15 0
0.4 -2.80903305277e-15 0
0.4 -5.85650715034e-15 0
0.4 -4.39196592104e-15 0
0.4 -3.84391399814e-15 0
0.4 3.38201852755e-15 0
0.4 5.51612706979e-15 0
0.4 3.94565070484e-15 0
0.4 4.54813500979e-15 0
0.4 9.90153155005e-15 0
0.4 -1.16412095356e-14 0
0.4 1.07655414867e-14 0
0.4 -1.24204923449e-14 0
0.4 -2.11866269469e-15 0
0.4 -1.013761083e-14 0
0.4 -3.18044034633e-15 0
0.4 -3.5317793351e-15 0
0.4 5.6303905189e-15 0
0.4 2.11533930232e-15 0
0.4 8.54049933643e-15 0
0.4 1.16532140695e-14 0
0.4 -1.37837133145e-14 0
0.4 -1.38736642213e-16 0
0.4 6.61887969016e-15 0
0.4 7.468413006e-15 0
0.4 6.16758647956e-15 0
0.4 -1.04876765779e-15 0
0.4 -3.5239540058e-15 0
0.4 4.43015294746e-15 0
0.4 -6.91931990967e-15 0
0.4 -1.18973752547e-15 0
0.4 5.4813328857e-15 0
0.4 -8.26482423995e-15 0
0.4 8.67195179155e-16 0
0.4 1.66363977353e-15 0
0.4 -7.45316244461e-15 0
0.4 1.31883589344e-15 0
0.4 6.18232130097e-15 0
0.4 -6.34095583614e-15 0
0.4 6.46718223433e-15 0
0.4 -7.50102393289e-15 0
0.4 4.26379956268e-16 0
0.4 -1.55130329097e-16 0
0.4 1.00843850549e-15 0
0.4 -1.41508754812e-14 0
0.4 1.17217476817e-14 0
0.4 4.92137701887e-15 0
0.4 4.19073834657e-15 0
0.4 1.73205034295e-16 0
0.4 -3.98620984756e-15 0
0.4 -5.14677490165e-15 0
0.4 7.05541272551e-15 0
0.4 7.85532886154e-15 0
0.4 3.10661580163e-15 0
0.4 -8.01045278823e-15 0
0.4 -8.58613031581e-15 0
0.4 -6.60059718812e-15 0
0.4 -1.36326029472e-15 0
0.4 9.61878812923e-16 0
0.4 1.57967570058e-15 0
0.4 -2.72380024818e-15 0
0.4 2.16484972802e-15 0
0.4 3.4389856446e-15 0
0.4 -1.03707394117e-14 0
0.4 -1.35020130882e-14 0
0.4 1.12164291947e-14 0
0.4 3.3520823029e-15 0
0.4 -1.14488807176e-14 0
0.4 9.65016415525e-15 0
0.4 1.316865556e-16 0
0.4 5.01005909518e-15 0
0.4 -2.76812453164e-16 0
0.4 -7.10978521075e-16 0
0.4 -1.14857325739e-15 0
0.4 9.34013054181e-15 0
0.4 -1.01901585441e-14 0
0.4 9.08252939336e-15 0
0.4 -2.01515505791e-15 0
0.4 -5.90422505133e-15 0
0.4 4.95505328755e-15 0
0.4 -3.68162905532e-15 0
0.4 1.83939650407e-15 0
0.4 3.2883366396e-15 0
0.4 3.02624980733e-15 0
0.4 4.00342134856e-16 0
0.4 7.43112436771e-15 0
0.4 2.13206289839e-15 0
0.4 -8.96512768584e-16 0
0.4 9.70525006431e-16 0
0.4 2.54766769886e-15 0
0.4 6.02248933019e-15 0
0.4 8.43189221116e-15 0
0.4 -9.16460442735e-15 0
0.4 -7.20218747315e-15 0
0.4 -2.05171641152e-16 0
0.4 1.81226481405e-15 0
0.4 5.46475402087e-15 0
0.4 -9.57297484114e-15 0
0.4 8.24037873643e-15 0
0.4 9.47291248789e-16 0
0.4 -4.96900080087e-15 0
0.4 -8.71684267397e-15 0
0.4 1.32244369195e-15 0
0.4 -2.35685917699e-15 0
0.4 1.09305473345e-14 0
0.4 -1.30444213667e-14 0
0.4 1.24412454443e-14 0
0.4 -1.45247287882e-14 0
0.4 -1.57377122524e-15 0
0.4 7.45981274704e-15 0
0.4 4.87627656766e-15 0
0.4 -6.24152195858e-15 0
0.4 -5.17509665958e-15 0
0.4 -4.17184358958e-15 0
0.4 -1.06589657519e-14 0
0.4 1.29612694941e-14 0
0.4 -1.52964925853e-14 0
0.4 -4.23433691995e-16 0
0.4 -3.17876207767e-15 0
0.4 6.62936932164e-15 0
0.4 9.89901991948e-15 0
0.4 -1.1888590339e-14 0
0.4 8.47211269836e-15 0
0.4 1.28818575226e-15 0
0.4 -9.80107542815e-15 0
0.4 -2.51707506645e-15 0
0.4 1.67569475847e-15 0
0.4 5.27079504506e-15 0
0.4 -7.52712395396e-15 0
0.4 8.66866242955e-15 0
0.4 -9.88450266034e-15 0
0.4 -1.86418985224e-15 0
0.4 6.99710192412e-15 0
0.4 1.6495937275e-15 0
0.4 1.12365454184e-14 0
0.4 -1.3292562522e-14 0
0.4 2.27679583106e-15 0
0.4 8.41904690182e-15 0
0.4 -8.92551672236e-15 0
0.4 2.05737149776e-15 0
0.4 3.53386024248e-15 0
0.4 5.85124180592e-16 0
0.4 7.2964820886e-15 0
0.4 1.95035184293e-15 0
0.4 -8.41694364861e-15 0
0.4 -1.20247320985e-16 0
0.4 -8.17625607079e-15 0
0.4 -1.0442464758e-15 0
0.4 -1.23359362653e-14 0
0.4 1.03748406044e-14 0
0.4 6.28414058967e-15 0
0.4 9.70088177339e-15 0
0.4 -1.12424124324e-14 0
0.4 -7.39560312875e-15 0
0.4 9.83218412395e-15 0
0.4 -1.1194324614e-14 0
0.4 1.09530073598e-14 0
0.4 -1.32506932756e-14 0
0.4 4.42534211842e-15 0
0.4 -6.96492887305e-16 0
0.4 -6.45521287056e-15 0
0.4 -6.12273224872e-16 0
0.4 -8.04090710129e-15 0
0.4 -1.07484646705e-15 0
0.4 5.64461028357e-15 0
0.4 -3.25341275471e-15 0
0.4 -2.81350889527e-15 0
0.4 -9.86384666869e-15 0
0.4 8.49746181447e-15 0
0.4 8.35727657333e-15 0
0.4 6.78449622891e-15 0
0.4 -3.58685708477e-15 0
0.4 2.83003027715e-15 0
0.4 -1.91651489078e-15 0
0.4 -2.40122058805e-15 0
0.4 -1.29681418438e-15 0
0.4 6.5253561937e-16 0
0.4 -6.88848212627e-15 0
0.4 4.21296032507e-15 0
0.4 -4.60248312907e-15 0
0.4 -8.11493470612e-15 0
0.4 9.24640271737e-18 0
0.4 4.5064344415e-15 0
0.4 1.30702201098e-15 0
0.4 1.14175887958e-15 0
0.4 2.48430012367e-15 0
0.4 5.35896514908e-15 0
0.4 2.4640576053e-15 0
0.4 3.37383091636e-15 0
0.4 3.68463395574e-15 0
0.4 -3.98994958849e-15 0
0.4 -4.91170046877e-15 0
0.4 1.28868920308e-14 0
0.4 -1.53054010252e-14 0
0.4 -1.17593579533e-14 0
0.4 9.82328583056e-15 0
0.4 1.10379785206e-15 0
0.4 2.31156077751e-15 0
0.4 7.59034091008e-15 0
0.4 -2.92791808704e-15 0
0.4 -2.49318016239e-15 0
0.4 1.52325662332e-15 0
0.4 -8.81027629814e-15 0
0.4 -1.36990629688e-15 0
0.4 -6.26894167558e-15 0
0.4 -2.74477115216e-15 0
0.4 7.55006925008e-15 0
0.4 -2.8165906001e-15 0
0.4 -8.47125219006e-15 0
0.4 9.77426654504e-15 0
0.4 -1.10165448691e-14 0
0.4 3.03260693649e-15 0
0.4 -5.53136423287e-15 0
0.4 -7.47613792243e-16 0
0.4 -2.06453979911e-15 0
0.4 -1.33488641757e-15 0
0.4 4.49867883162e-15 0
0.4 -4.49909987931e-15 0
0.4 5.97825776202e-15 0
0.4 3.46083580327e-16 0
0.4 1.10938065469e-14 0
0.4 -1.32592454128e-14 0
0.4 1.23026947845e-15 0
0.4 -8.94813646416e-15 0
0.4 -1.12069957512e-14 0
0.4 9.41565269374e-15 0
0.4 2.48131246657e-15 0
0.4 5.42600849029e-15 0
0.4 -8.47626260747e-17 0
0.4 4.83949706221e-15 0
0.4 -6.69464560243e-15 0
0.4 -5.69785273161e-15 0
0.4 4.74450355968e-15 0
0.4 -3.63917121622e-15 0
0.4 1.09553923819e-14 0
0.4 -1.32704030846e-14 0
0.4 2.09844624579e-15 0
0.4 -5.09091366394e-15 0
0.4 3.60529261288e-15 0
0.4 3.8786970165e-15 0
0.4 7.33680094033e-15 0
0.4 -4.57996478107e-16 0
0.4 -2.52527978523e-15 0
0.4 2.4996086573e-15 0
0.4 -8.58585117854e-15 0
0.4 2.16251265788e-16 0
0.4 -3.47502031417e-15 0
0.4 8.91379438385e-15 0
0.4 -5.55192568815e-15 0
0.4 -6.28658685912e-15 0
0.4 -3.65641077048e-15 0
0.4 1.03067292618e-14 0
0.4 -1.20060095292e-14 0
0.4 7.85852516497e-15 0
0.4 -9.43150444897e-15 0
0.4 8.42578290129e-15 0
0.4 7.04287229534e-16 0
0.4 1.25128417468e-14 0
0.4 -1.51918114482e-14 0
0.4 8.11545180854e-15 0
0.4 -5.95307387026e-15 0
0.4 -8.60638534778e-15 0
0.4 5.82480730284e-15 0
0.4 2.89456364211e-15 0
0.4 3.06288541604e-16 0
0.4 2.68190046541e-15 0
0.4 -4.69410319312e-15 0
0.4 2.21696038098e-16 0
0.4 2.23251593632e-15 0
0.4 3.73778952322e-15 0
0.4 -1.78787736538e-15 0
0.4 7.88337540009e-16 0
0.4 4.69022559666e-16 0
0.4 5.06948952382e-15 0
0.4 6.97372432341e-15 0
0.4 -2.58186901798e-15 0
0.4 -8.75551445999e-16 0
0.4 -6.6017559559e-15 0
0.4 -9.37223944229e-15 0
0.4 -1.43442334858e-15 0
0.4 1.32909485599e-14 0
0.4 -1.56315501855e-14 0
0.4 -7.92749678408e-15 0
0.4 9.06841722673e-15 0
0.4 -9.68720601824e-15 0
0.4 5.82863582167e-15 0
0.4 4.53407099571e-16 0
0.4 5.07890662375e-15 0
0.4 6.52618295211e-15 0
0.4 -5.75150872826e-15 0
0.4 -6.98447055456e-15 0
0.4 3.38448954144e-16 0
0.4 -7.81701267276e-15 0
0.4 8.90372334321e-15 0
0.4 -1.02728241532e-14 0
0.4 -9.07299895419e-16 0
0.4 4.34984683687e-15 0
0.4 1.08660125992e-14 0
0.4 -1.29920608639e-14 0
0.4 -3.07107372293e-15 0
0.4 1.20658353725e-14 0
0.4 -1.42412041654e-14 0
0.4 -7.36437364987e-15 0
0.4 -3.92220430524e-15 0
0.4 1.99111176555e-17 0
0.4 9.49977442148e-15 0
0.4 -1.07263350244e-14 0
0.4 -6.46872974559e-15 0
0.4 6.75448176026e-15 0
0.4 9.3371367961e-15 0
0.4 -1.06389235956e-14 0
0.4 1.4655802532e-15 0
0.4 1.29118089431e-14 0
0.4 -1.50310954023e-14 0
0.4 4.66357230985e-15 0
0.4 3.91872931855e-15 0
0.4 9.07787731908e-15 0
0.4 -1.03939241498e-14 0
0.4 7.81786754463e-15 0
0.4 6.08540699102e-15 0
0.4 2.16159892653e-15 0
0.4 7.42901639295e-15 0
0.4 -4.1500492425e-15 0
0.4 5.89280568752e-15 0
0.4 -6.97773610341e-15 0
0.4 -8.80892960134e-15 0
0.4 2.13508541588e-15 0
0.4 1.02059226454e-14 0
0.4 3.63631529811e-15 0
0.4 -1.17462723394e-14 0
0.4 2.44705043908e-15 0
0.4 6.7288696776e-15 0
0.4 -8.00309772295e-15 0
0.4 6.50416829868e-15 0
0.4 -1.84819634733e-16 0
0.4 6.48179535514e-15 0
0.4 -8.34121031397e-15 0
0.4 3.14889906481e-15 0
0.4 5.57122077803e-15 0
0.4 -1.91333325757e-15 0
0.4 5.45481740642e-15 0
0.4 6.86001675776e-15 0
0.4 -2.12220975588e-16 0
0.4 1.10733211343e-14 0
0.4 -1.28799155201e-14 0
0.4 4.27275802277e-15 0
0.4 -2.4036013156e-15 0
0.4 -1.02862475745e-14 0
0.4 -1.04646751071e-14 0
0.4 8.92606252445e-15 0
0.4 9.65328383463e-16 0
0.4 3.98946347444e-16 0
0.4 2.27244808801e-15 0
0.4 8.49774034852e-15 0
0.4 2.43809115954e-15 0
0.4 3.00751141341e-15 0
0.4 8.70678306629e-15 0
0.4 -5.22753028711e-15 0
0.4 5.10356695243e-15 0
0.4 2.90039490013e-15 0
0.4 7.01892894354e-15 0
0.4 -2.92139598149e-15 0
0.4 3.06134921597e-16 0
0.4 -5.09883773626e-15 0
0.4 5.08952970959e-16 0
0.4 -7.22106328725e-16 0
0.4 -4.49680064929e-15 0
0.4 8.03543718529e-15 0
0.4 -7.26168948646e-17 0
0.4 -5.84111456876e-15 0
0.4 8.18749270157e-16 0
0.4 2.83806600211e-15 0
0.4 -1.35202298787e-16 0
0.4 3.7701036375e-15 0
0.4 1.12954759021e-14 0
0.4 -1.34855213508e-14 0
0.4 3.67429196501e-15 0
0.4 -8.23967661041e-15 0
0.4 5.74991304696e-15 0
0.4 -6.60595154727e-15 0
0.4 4.1682126108e-15 0
0.4 3.28139601244e-15 0
0.4 5.37611862467e-15 0
0.4 -1.51156667323e-15 0
0.4 8.62148374972e-16 0
0.4 -7.16279027534e-15 0
0.4 -6.90938639564e-16 0
0.4 -3.85909703387e-15 0
0.4 3.83224993293e-15 0
0.4 3.65211822237e-15 0
0.4 -2.4853164246e-15 0
0.4 7.01088137443e-15 0
0.4 1.53085603018e-15 0
0.4 -4.17911589537e-15 0
0.4 1.51932665623e-16 0
0.4 -3.37106496126e-15 0
0.4 2.67883886029e-15 0
0.4 -2.34065799215e-15 0
0.4 8.99734502665e-16 0
0.4 -7.90888154023e-15 0
0.4 -2.31655863087e-15 0
0.4 3.20324878474e-15 0
0.4 5.17248317019e-15 0
0.4 2.83131312268e-16 0
0.4 3.99965480428e-15 0
0.4 2.17515762436e-15 0
0.4 -5.71442137179e-15 0
0.4 4.82532084898e-15 0
0.4 7.90019601755e-15 0
0.4 -1.07112505349e-14 0
0.4 4.91352166208e-15 0
0.4 -9.5059470396e-15 0
0.4 1.18394627207e-14 0
0.4 -1.45011290557e-14 0
0.4 -3.31485143568e-15 0
0.4 7.43068199562e-15 0