# vtk DataFile Version 2.0
Generated with Solid Solver
ASCII
DATASET UNSTRUCTURED_GRID
POINTS 999 float 
0.2 4.325 0.0
1.4 4.325 0.0
1.4 4.825 0.0
0.2 4.825 0.0
1.4 4.34523264049 0.0
1.4 4.36751203886 0.0
1.4 4.39204525371 0.0
1.4 4.4190602782 0.0
1.4 4.44880817466 0.0
1.4 4.48156541084 0.0
1.4 4.51763640748 0.0
1.4 4.5573564007 0.0
1.4 4.60109451608 0.0
1.4 4.64925723872 0.0
1.4 4.70229217343 0.0
1.4 4.76069218095 0.0
1.33333333333 4.825 0.0
1.26666666667 4.825 0.0
1.2 4.825 0.0
1.13333333333 4.825 0.0
1.06666666667 4.825 0.0
1.0 4.825 0.0
0.933333333334 4.825 0.0
0.866666666668 4.825 0.0
0.800000000001 4.825 0.0
0.733333333334 4.825 0.0
0.666666666668 4.825 0.0
0.600000000001 4.825 0.0
0.533333333334 4.825 0.0
0.466666666667 4.825 0.0
0.4 4.825 0.0
0.333333333334 4.825 0.0
0.266666666667 4.825 0.0
0.2 4.76069218095 0.0
0.2 4.70229217343 0.0
0.2 4.64925723872 0.0
0.2 4.60109451608 0.0
0.2 4.5573564007 0.0
0.2 4.51763640748 0.0
0.2 4.48156541084 0.0
0.2 4.44880817466 0.0
0.2 4.4190602782 0.0
0.2 4.39204525371 0.0
0.2 4.36751203886 0.0
0.2 4.34523264049 0.0
0.212131543907 4.30926329506 0.0
0.224675715302 4.29385348652 0.0
0.23762369102 4.27878141198 0.0
0.250966423879 4.26405760374 0.0
0.264694484585 4.24969246611 0.0
0.278798324214 4.23569599189 0.0
0.293267939266 4.22207810803 0.0
0.308093289028 4.20884826442 0.0
0.323263842145 4.19601585877 0.0
0.338769084145 4.18358978512 0.0
0.354597997314 4.17157887342 0.0
0.37073960121 4.15999145532 0.0
0.387182441982 4.14883575334 0.0
0.403915091795 4.13811952025 0.0
0.420925712897 4.12785033813 0.0
0.438202430937 4.11803537461 0.0
0.455733079095 4.10868154223 0.0
0.473505374364 4.09979539439 0.0
0.491506842655 4.09138316882 0.0
0.509724826085 4.0834507802 0.0
0.528146580414 4.07600377808 0.0
0.546759103951 4.06904741762 0.0
0.56554943677 4.06258654322 0.0
0.584504260001 4.05662573401 0.0
0.60361041518 4.0511691282 0.0
0.622854334779 4.04622060039 0.0
0.642222678753 4.04178358113 0.0
0.661701681839 4.03786122392 0.0
0.681277836375 4.03445624851 0.0
0.700937245817 4.03157107217 0.0
0.720666255912 4.02920769845 0.0
0.740450894784 4.02736780161 0.0
0.76027736978 4.02605266363 0.0
0.780131702711 4.02526321235 0.0
0.799999999998 4.025 0.0
0.819868297285 4.02526321235 0.0
0.839722630216 4.02605266363 0.0
0.859549105212 4.02736780161 0.0
0.879333744085 4.02920769845 0.0
0.89906275418 4.03157107217 0.0
0.918722163621 4.03445624851 0.0
0.938298318157 4.03786122392 0.0
0.957777321244 4.04178358113 0.0
0.977145665218 4.04622060039 0.0
0.996389584817 4.0511691282 0.0
1.01549574 4.05662573401 0.0
1.03445056323 4.06258654322 0.0
1.05324089605 4.06904741762 0.0
1.07185341958 4.07600377808 0.0
1.09027517391 4.0834507802 0.0
1.10849315734 4.09138316882 0.0
1.12649462563 4.09979539439 0.0
1.1442669209 4.10868154222 0.0
1.16179756906 4.1180353746 0.0
1.1790742871 4.12785033813 0.0
1.1960849082 4.13811952024 0.0
1.21281755802 4.14883575334 0.0
1.22926039879 4.15999145532 0.0
1.24540200269 4.17157887342 0.0
1.26123091585 4.18358978512 0.0
1.27673615785 4.19601585877 0.0
1.29190671097 4.20884826442 0.0
1.30673206073 4.22207810803 0.0
1.32120167579 4.23569599189 0.0
1.33530551541 4.24969246611 0.0
1.34903357612 4.26405760374 0.0
1.36237630898 4.27878141198 0.0
1.3753242847 4.29385348652 0.0
1.38786845609 4.30926329506 0.0
1.05632730172 4.46025283906 0.0
0.549964048968 4.4630053958 0.0
0.806135520676 4.31186690218 0.0
0.603895783049 4.26079310371 0.0
1.22984770884 4.38318704125 0.0
0.3703382852 4.38423552752 0.0
0.995322815839 4.25565031136 0.0
0.728315816804 4.1765935937 0.0
0.872128173905 4.17288724072 0.0
1.14059401893 4.27298468684 0.0
0.461553191009 4.27181671009 0.0
0.784706775856 4.56821390922 0.0
0.398287125272 4.57945970538 0.0
1.20625306554 4.58334743514 0.0
0.624100842742 4.1589824436 0.0
0.5257453845 4.18811776279 0.0
0.978502430793 4.15488737058 0.0
1.07419209812 4.18825154482 0.0
0.364313698077 4.28677035763 0.0
1.23509538257 4.28681716733 0.0
0.68124123937 4.39284548972 0.0
1.31679378691 4.35012066749 0.0
0.283206213094 4.35012066749 0.0
0.791498533126 4.11467141721 0.0
0.931481076052 4.3801344917 0.0
0.966719065571 4.62778042839 0.0
0.684451667517 4.11068036752 0.0
0.618335406951 4.62686910993 0.0
0.450982331762 4.19686171732 0.0
0.915674266355 4.10995633851 0.0
1.14900051594 4.19689012964 0.0
1.30193709687 4.4481448133 0.0
0.298574667609 4.44816296922 0.0
1.05734787542 4.34990107617 0.0
0.539273225177 4.35252599628 0.0
0.709896798149 4.27721026287 0.0
0.895708916005 4.26924194389 0.0
0.813273511364 4.43835766235 0.0
0.559289631452 4.13230879113 0.0
1.04001407307 4.13281539633 0.0
0.801161810585 4.23146244955 0.0
0.665113819616 4.52056650186 0.0
0.852577362173 4.09111846388 0.0
0.390256727869 4.2242806298 0.0
1.20974450479 4.22428104599 0.0
0.921542541183 4.52778058719 0.0
1.14030889032 4.36437344809 0.0
1.15600477272 4.46808538305 0.0
0.435243219029 4.4750581257 0.0
0.462045157798 4.36654654286 0.0
0.735806812738 4.08472269746 0.0
1.30082934537 4.29793772796 0.0
0.299170654625 4.29793772796 0.0
0.533651712118 4.26265983853 0.0
0.666130919144 4.21652131559 0.0
1.0676097303 4.26179469382 0.0
1.08054433577 4.58530946155 0.0
0.506773767255 4.56568295079 0.0
0.626745312844 4.10124420826 0.0
0.933845304214 4.2106954732 0.0
0.293717639664 4.55175000185 0.0
0.312505022079 4.66426411351 0.0
1.3058164124 4.55154930624 0.0
1.29054387065 4.66302765963 0.0
0.973467966326 4.09941619478 0.0
0.487935413164 4.15087084015 0.0
0.461549079751 4.68836834982 0.0
1.11203248746 4.15093503889 0.0
1.14453515393 4.70617370303 0.0
0.840217564202 4.68891146633 0.0
0.585347033288 4.20539048534 0.0
0.619177396637 4.34227576306 0.0
0.331644410315 4.24962190462 0.0
1.26835558968 4.24962190462 0.0
1.01536156978 4.19987473052 0.0
0.809331033562 4.07065709122 0.0
0.982321540791 4.33437358971 0.0
0.725600576914 4.66999651799 0.0
0.812291456186 4.16642942492 0.0
0.335887692543 4.33918235669 0.0
1.26344844681 4.34017131907 0.0
1.23449730504 4.49457441524 0.0
1.34334172095 4.40539551957 0.0
0.256658279045 4.40539551957 0.0
0.741646926828 4.34287908527 0.0
0.674799084703 4.16673768522 0.0
1.18647435526 4.30955189749 0.0
0.360563250283 4.49596479569 0.0
0.873716483853 4.33845499203 0.0
0.418704489949 4.31146264283 0.0
0.492670911224 4.22931614809 0.0
0.403480880356 4.19046776931 0.0
1.19651541215 4.1904686246 0.0
0.728649253738 4.46214546491 0.0
1.00883674467 4.40174664879 0.0
1.11035034557 4.23161841276 0.0
0.261968539765 4.3130079512 0.0
1.33803146023 4.3130079512 0.0
0.74649980488 4.1318354354 0.0
0.927597725248 4.1577597079 0.0
0.892956618256 4.07619338913 0.0
0.659794281787 4.07951387326 0.0
0.587663534405 4.09486537006 0.0
0.942353209926 4.07935300973 0.0
1.01493747319 4.09476013719 0.0
0.613130017774 4.41369803882 0.0
0.449373501074 4.15377191978 0.0
0.514840228377 4.12225850006 0.0
0.497057592 4.41333092106 0.0
1.15061382426 4.15379293084 0.0
1.08514419473 4.12228328152 0.0
0.745617635771 4.23098957592 0.0
0.87523452213 4.59853036549 0.0
0.855262884783 4.2258970831 0.0
1.01126200032 4.53280064162 0.0
1.09391916408 4.40632408872 0.0
1.04436265455 4.71482000827 0.0
0.314320181089 4.38773968607 0.0
1.28649331902 4.38743720145 0.0
0.771211579291 4.06316862024 0.0
0.432259099658 4.24006002157 0.0
0.698583889427 4.07144353526 0.0
1.16802128371 4.238862881 0.0
1.09587629216 4.3086676659 0.0
1.35920470355 4.35666960471 0.0
0.240795296449 4.35666960471 0.0
0.504003580654 4.30815758118 0.0
0.579942709371 4.5342075073 0.0
0.875915224914 4.12815792528 0.0
0.426503136644 4.40717733008 0.0
0.57541416445 4.30365301522 0.0
0.683877978289 4.33161848113 0.0
0.888061695889 4.44633509246 0.0
0.26012287522 4.49859249103 0.0
1.33987712478 4.49859249103 0.0
0.801393572636 4.37060096582 0.0
0.558460082533 4.72496728209 0.0
1.1741923373 4.41132830101 0.0
0.83220012886 4.12779415912 0.0
1.02815069622 4.30053276509 0.0
0.948308583502 4.2880204454 0.0
0.846588933095 4.50834596945 0.0
0.343666800815 4.43485820652 0.0
1.25632767671 4.43480360053 0.0
0.97849585731 4.47031535602 0.0
1.10170977548 4.51507265998 0.0
0.662193131828 4.26809398492 0.0
0.400503668388 4.26881657105 0.0
1.20117145985 4.26130427377 0.0
0.350957892513 4.21796558019 0.0
1.24904210749 4.21796558019 0.0
0.771964652188 4.18905379403 0.0
0.932165148285 4.72736281402 0.0
0.373672364094 4.73321357765 0.0
0.760245937722 4.28409350779 0.0
0.848718469252 4.05767763075 0.0
1.23385612561 4.7358294747 0.0
0.846421485813 4.28065918421 0.0
0.651597058631 4.13043284014 0.0
0.650489852552 4.72138045504 0.0
0.58457834847 4.16375088261 0.0
0.48701309933 4.18859927013 0.0
0.708495738406 4.58856947756 0.0
1.11203398596 4.18878062515 0.0
0.54865558244 4.10250047869 0.0
1.05126102377 4.10234629471 0.0
0.300013757486 4.26259646442 0.0
1.29998624251 4.26259646442 0.0
0.9465032388 4.12718070354 0.0
0.708587583337 4.14146095907 0.0
0.973348904468 4.19537871864 0.0
0.628721855632 4.19538356945 0.0
0.380175010018 4.34021880077 0.0
0.662092932411 4.45899041267 0.0
1.05133526787 4.22221992007 0.0
0.528087045766 4.64327882187 0.0
1.22233124543 4.33521693908 0.0
1.19001193434 4.36273586668 0.0
0.853024099244 4.39544003492 0.0
0.542800296246 4.22324366905 0.0
0.247706318737 4.45239119247 0.0
1.35229368126 4.45239119247 0.0
0.599153768578 4.12953797005 0.0
1.01616570494 4.16227683178 0.0
0.744705786938 4.40569544575 0.0
1.31929001115 4.73702550052 0.0
0.777615355331 4.15113602511 0.0
1.33132411895 4.60631378639 0.0
0.265621610877 4.60975488866 0.0
0.532023338888 4.15374454388 0.0
1.0697792195 4.15241429251 0.0
0.286371037106 4.73010312914 0.0
0.497725885905 4.50153668256 0.0
0.46053455822 4.31587947599 0.0
0.433799237968 4.54629400991 0.0
0.388624781906 4.65094200004 0.0
0.554823673752 4.40451940232 0.0
1.1421595646 4.31818301431 0.0
1.14760043966 4.61655103139 0.0
1.21258698805 4.65320200685 0.0
1.16279096046 4.53292621409 0.0
0.995762647814 4.12508772517 0.0
0.456229040627 4.61456685246 0.0
0.707289391156 4.21520271873 0.0
0.763036833302 4.74285445535 0.0
0.78386198569 4.49787013126 0.0
[...]
POINT_DATA 999
VECTORS Displacement float
0.477352670519 -0.196236029859 0
0.482802598132 -0.196163742959 0
0.48 -0.2 0
0.48 -0.2 0
0.48303619794 -0.196147580435 0
0.483260196128 -0.196126617496 0
0.483460197014 -0.196102596369 0
0.48362940997 -0.196095637014 0
0.483731175476 -0.196115405911 0
0.483794450935 -0.196172522455 0
0.483759651533 -0.196275701849 0
0.483619395522 -0.196434820615 0
0.483358159794 -0.196691564114 0
0.482924247855 -0.197071068727 0
0.482296134719 -0.197639930188 0
0.481390335584 -0.198501215208 0
0.48 -0.2 0
0.48 -0.2 0
0.48 -0.2 0
0.48 -0.2 0
0.48 -0.2 0
0.48 -0.2 0
0.48 -0.2 0
0.48 -0.2 0
0.48 -0.2 0
0.48 -0.2 0
0.48 -0.2 0
0.48 -0.2 0
0.48 -0.2 0
0.48 -0.2 0
0.48 -0.2 0
0.48 -0.2 0
0.48 -0.2 0
0.478639433551 -0.198532438772 0
0.477751644342 -0.197685318089 0
0.477111342548 -0.197123134965 0
0.476706800145 -0.196745563713 0
0.476462372996 -0.196491905238 0
0.476333022401 -0.196336065211 0
0.476309194874 -0.196236966578 0
0.476383211009 -0.196182592762 0
0.476494819452 -0.196164734086 0
0.476672978573 -0.196173052139 0
0.476881131818 -0.196197985666 0
0.477112498387 -0.196219553353 0
0.477550983244 -0.196105757564 0
0.477768888065 -0.195960202732 0
0.478004120158 -0.195790778991 0
0.478261381315 -0.195597917521 0
0.478539539593 -0.195373429814 0
0.478830535546 -0.195111899518 0
0.479138875815 -0.194816156548 0
0.479477247407 -0.194482390245 0
0.479842564409 -0.194080547236 0
0.480215528333 -0.193642495686 0
0.480616223069 -0.193133443145 0
0.481066780935 -0.192540755578 0
0.481543785249 -0.191813538079 0
0.482077617161 -0.190905824369 0
0.482589452584 -0.18980065001 0
0.483007538601 -0.188700298229 0
0.483317034305 -0.187641952051 0
0.483545489681 -0.186594845502 0
0.483704812586 -0.185597874317 0
0.48380117487 -0.184622647064 0
0.483842731379 -0.183690300658 0
0.48380681174 -0.182814557595 0
0.483722492219 -0.182025465915 0
0.483589499988 -0.181276517337 0
0.483419658579 -0.180588655439 0
0.483201684089 -0.17995675985 0
0.482957150501 -0.179389097599 0
0.482676221552 -0.178885256658 0
0.482377808161 -0.178449416826 0
0.482047046672 -0.178070436061 0
0.481701056606 -0.17776054932 0
0.481330616934 -0.177506005885 0
0.480952498764 -0.177312065906 0
0.480560585452 -0.177163595963 0
0.480127781573 -0.177084486167 0
0.479697249562 -0.177196898431 0
0.479297157118 -0.177328791733 0
0.478915837662 -0.177515902935 0
0.478549847578 -0.177764359194 0
0.478200368372 -0.178074127885 0
0.477867294866 -0.178450855784 0
0.477556835448 -0.178895038533 0
0.477283886383 -0.179391832129 0
0.477038305937 -0.179956407661 0
0.47681873648 -0.180586293521 0
0.476640825466 -0.181260266312 0
0.476497639425 -0.182002759213 0
0.476425956162 -0.182845284625 0
0.476399031865 -0.183726958687 0
0.476437092234 -0.184640992308 0
0.47652631743 -0.185600723734 0
0.476688101819 -0.186608287639 0
0.476921517822 -0.187664986985 0
0.477235518709 -0.188726481611 0
0.477653969335 -0.189823457384 0
0.478164354483 -0.190921594101 0
0.478693363133 -0.191818769738 0
0.479159364748 -0.19252832336 0
0.479601591487 -0.193111162499 0
0.479995146611 -0.193612837106 0
0.480361606943 -0.194044833068 0
0.480720631058 -0.194441212954 0
0.48105316334 -0.194770280667 0
0.481355984831 -0.195061701516 0
0.481641624308 -0.195319149775 0
0.481914453488 -0.195539776463 0
0.482166459167 -0.195728976976 0
0.482396527478 -0.195894898519 0
0.482609367245 -0.19603701416 0
0.482448678249 -0.192466183129 0
0.477716563069 -0.192454999961 0
0.480127710799 -0.185916372448 0
0.479113745948 -0.186214228172 0
0.483221413448 -0.193944270449 0
0.476911225789 -0.193975666881 0
0.481016252256 -0.186050169401 0
0.480214928006 -0.181846411448 0
0.479967599987 -0.181740140511 0
0.481918433555 -0.19028561867 0
0.478284482182 -0.190200899767 0
0.479905746893 -0.193771636512 0
0.477197234885 -0.196295767436 0
0.482860146536 -0.19637070102 0
0.480681933166 -0.182866578051 0
0.480136817373 -0.186321428151 0
0.479448360992 -0.182815695789 0
0.480081905161 -0.186328976181 0
0.477876311238 -0.193235294762 0
0.48229213656 -0.193195398321 0
0.4789321781 -0.189048697043 0
0.483084687091 -0.195147635397 0
0.477061746358 -0.195194231534 0
0.480183870478 -0.179656769506 0
0.481300975993 -0.188785578205 0
0.481266045287 -0.195755207405 0
0.481127590548 -0.180412105492 0
0.478680480421 -0.195802554049 0
0.479796610316 -0.18929127997 0
0.479086085654 -0.180392765711 0
0.480414907788 -0.189300339448 0
0.48361418773 -0.195511696063 0
0.476500809089 -0.195547324582 0
0.48220284171 -0.189844602928 0
0.477910099289 -0.189975410783 0
0.479559084168 -0.185184207588 0
0.480608634982 -0.18498718422 0
0.480196610136 -0.189949838883 0
0.481585731222 -0.183857325608 0
0.478660286229 -0.183852352117 0
0.480099315127 -0.183297908271 0
0.478754872576 -0.192839683878 0
0.479531424327 -0.179162411798 0
0.479053633044 -0.192009492114 0
0.481139548416 -0.192001682251 0
0.481204180908 -0.192956298949 0
0.482784543549 -0.191895072109 0
0.4830801815 -0.193995572544 0
0.476975976279 -0.194243883906 0
0.477361128377 -0.191888060462 0
0.480883109667 -0.179072330252 0
0.482459409217 -0.194722572504 0
0.477704757767 -0.194765517958 0
0.478734513841 -0.187910500434 0
0.479840505664 -0.183806612191 0
0.481444574603 -0.187924120629 0
0.482215842914 -0.19547842223 0
0.477678124064 -0.195180732645 0
0.481848656175 -0.181235418656 0
0.480298016439 -0.183629893182 0
0.476652661732 -0.196495331254 0
0.477654895823 -0.197803716092 0
0.483429417985 -0.196459582486 0
0.482417890888 -0.197767939113 0
0.478340756926 -0.181193290554 0
0.481279807616 -0.186878375666 0
0.478366698798 -0.197770005279 0
0.478949406175 -0.186891538645 0
0.481510251897 -0.198097731971 0
0.480259988399 -0.196949046665 0
0.479843249782 -0.185061726375 0
0.478563639419 -0.188290718395 0
0.478533507733 -0.193916306858 0
0.481648297365 -0.193883830218 0
0.480263538633 -0.184930933418 0
0.479993217826 -0.17837662957 0
0.481560923676 -0.188092906311 0
0.479539889814 -0.196526205173 0
0.480073201816 -0.18124447211 0
0.477199288268 -0.194235294993 0
0.482958861788 -0.194196797898 0
0.483396914204 -0.195336223155 0
0.483520872983 -0.195662520871 0
0.476607204628 -0.19571518519 0
0.479579610037 -0.187065127659 0
0.480423135402 -0.18217432437 0
0.482517488068 -0.192139573843 0
0.476676749673 -0.195424240309 0
0.480696989272 -0.187013473718 0
0.477638148116 -0.19204328976 0
0.479125054841 -0.188363897178 0
0.479949563523 -0.191242460382 0
0.480260586345 -0.191243742619 0
0.479340962761 -0.190829649869 0
0.482024219787 -0.190346970509 0
0.481126644838 -0.188520301932 0
0.477497081148 -0.195432886923 0
0.482661786128 -0.195378961375 0
0.480446453445 -0.18035004804 0
0.479669157965 -0.181943332053 0
0.478893666005 -0.179149605875 0
0.481912447732 -0.179974645071 0
0.482425954513 -0.182073635133 0
0.478291391323 -0.180016210833 0
0.47777144612 -0.182143254188 0
0.478275239573 -0.19038343381 0
0.481245404782 -0.188648925227 0
0.482202305112 -0.185190466151 0
0.477378627747 -0.192134933538 0
0.478984883008 -0.188665115137 0
0.478026682118 -0.185204337868 0
0.479936185565 -0.183442207114 0
0.480665602189 -0.194687426352 0
0.480239436843 -0.183285330226 0
0.481948690123 -0.193732446069 0
0.482672274316 -0.191824156908 0
0.481114441238 -0.197957291014 0
0.476779609308 -0.194926172329 0
0.483353610741 -0.194898247446 0
0.480541664315 -0.178225442136 0
0.478748681568 -0.190662589974 0
0.481520693822 -0.179130566677 0
0.481418109877 -0.190655355525 0
0.48213572114 -0.189754267437 0
0.483162199229 -0.195708116298 0
0.476982288672 -0.195767060532 0
0.478036035216 -0.189748225237 0
0.478078110723 -0.19384685285 0
0.479603026053 -0.180425159509 0
0.477006352304 -0.193271007443 0
0.478512866791 -0.187985966978 0
0.479134087142 -0.187149290258 0
0.480946590592 -0.190433350049 0
0.476404094456 -0.196165543582 0
0.483690875442 -0.19612020785 0
0.480086211054 -0.187810469298 0
0.4790108373 -0.198145444802 0
0.483131685341 -0.193337485872 0
0.479894524579 -0.180108829779 0
0.481654416529 -0.187977145539 0
0.481032533831 -0.186206565926 0
0.480512544336 -0.19210724954 0
0.476636864764 -0.194916030393 0
0.483480950367 -0.194885195772 0
0.481792460716 -0.191828050349 0
0.482656247184 -0.194216269764 0
0.479350314909 -0.185445314284 0
0.478184703514 -0.192053103283 0
0.481866960895 -0.192022727911 0
0.479230656016 -0.193299229856 0
0.480964148955 -0.193274600639 0
0.480114098571 -0.18198798187 0
0.480592974644 -0.197971030106 0
0.478676475041 -0.19871506931 0
0.479842041048 -0.185089425506 0
0.479361608207 -0.178213254464 0
0.481317920264 -0.198753957354 0
0.480365952011 -0.185005750198 0
0.481065666787 -0.181512112251 0
0.479332970891 -0.19787360966 0
0.480683257956 -0.183944298871 0
0.480080256531 -0.187707741062 0
0.479259168707 -0.194474816551 0
0.480137217465 -0.187681475558 0
0.482612894107 -0.183492273045 0
0.477618154771 -0.183500562407 0
0.478291549376 -0.194687582082 0
0.481885322624 -0.194644479536 0
0.479107550265 -0.181391784289 0
0.480586451557 -0.18098492232 0
0.480145810474 -0.183860586064 0
0.48006274891 -0.183818155955 0
0.477259861364 -0.193317973515 0
0.478692235126 -0.191150524387 0
0.480753654006 -0.186477914839 0
0.478253818077 -0.196619974542 0
0.482851808491 -0.193300083615 0
0.482980293554 -0.192923805725 0
0.480582053355 -0.188709006603 0
0.479412958337 -0.186669916519 0
0.476405527686 -0.195973116631 0
0.483706556995 -0.195920096347 0
0.481418198922 -0.182652477497 0
0.479499773248 -0.183922524929 0
0.479524574662 -0.189036374673 0
0.481452437602 -0.198734908566 0
0.480199075435 -0.180786426849 0
0.483130603802 -0.197034293601 0
0.476949794957 -0.197104779305 0
0.481069854768 -0.185275517037 0
0.479108213607 -0.185316044069 0
0.478490084367 -0.198670542385 0
0.477394946637 -0.193952245307 0
0.477745759229 -0.191013481294 0
0.477172964581 -0.195474341484 0
0.477751317389 -0.197449291383 0
0.477813284591 -0.190974430264 0
0.482452074311 -0.191118991562 0
0.482359129987 -0.196548078246 0
0.482277080322 -0.197473601529 0
0.482950861312 -0.195197088429 0
0.478733072694 -0.18239782492 0
0.477704830661 -0.196497459986 0
0.479934699733 -0.183250047159 0
0.479864371309 -0.198226448997 0
0.479892054787 -0.191756166108 0
0.481103637842 -0.187301147531 0
0.480927443887 -0.190212846164 0
0.480227230364 -0.183100205893 0
0.479299216227 -0.190225918175 0
0.483566111366 -0.195820646173 0
0.481129603132 -0.178432246813 0
0.477915095322 -0.19409550955 0
0.482254429644 -0.194061622771 0
0.479849683393 -0.192494144132 0
0.480356229064 -0.192480937232 0
0.47820252675 -0.192125619202 0
0.477119499107 -0.192998812164 0
0.480478351744 -0.179126959654 0
0.479229801445 -0.193026015864 0
0.478457992291 -0.193002278573 0
0.481723960076 -0.192978998678 0
0.476539649276 -0.195808134516 0
0.483334205551 -0.194453191125 0
0.480716263064 -0.185011364741 0
0.47792050158 -0.195240271982 0
0.482248431952 -0.195188893124 0
0.481644170222 -0.197054881039 0
0.476790925103 -0.194461977666 0
0.477263157042 -0.195810063147 0
0.48288970817 -0.195748858999 0
0.48244914778 -0.180774506448 0
0.48011233214 -0.182313765979 0
0.482943451718 -0.196923860724 0
0.477108757477 -0.196944039541 0
0.478540050961 -0.18898630858 0
0.480906244664 -0.179944417321 0
0.480105064217 -0.184308164368 0
0.479895387433 -0.179224175168 0
0.482512560757 -0.190845068137 0
0.481664978305 -0.18904588699 0
0.478911650535 -0.186884696272 0
0.478396835671 -0.179116349027 0
0.477818878836 -0.180810087912 0
0.482821348361 -0.193299815834 0
0.477246077377 -0.194789619095 0
0.482906409158 -0.194747500938 0
0.481311768409 -0.194261112187 0
0.477628411926 -0.190873829654 0
0.479063886508 -0.186619972262 0
0.479736562268 -0.184985417015 0
0.478641369412 -0.194231527377 0
0.479893062836 -0.195874666225 0
0.482107355277 -0.186948763412 0
0.478127133097 -0.186962679827 0
0.478977335451 -0.189510832725 0
0.481134656356 -0.18947536836 0
0.4764972939 -0.196488803878 0
0.483586810932 -0.196444086689 0
0.479458930365 -0.185178354429 0
0.481165723193 -0.186779238056 0
0.480320123668 -0.18524491668 0
0.481746609367 -0.195439804102 0
0.478979418181 -0.178464574624 0
0.481437069643 -0.19049751781 0
0.483391297496 -0.195844259578 0
0.476744511448 -0.195905215634 0
0.479531828191 -0.190534409526 0
0.479293952993 -0.179697996253 0
0.480672804464 -0.19053767631 0
0.47966142511 -0.184328312214 0
0.480732752463 -0.196368589155 0
0.48086532008 -0.198855477744 0
0.482355647974 -0.190947001686 0
0.478152999821 -0.189506229505 0
0.483380062841 -0.195279486706 0
0.476754445382 -0.195325220088 0
0.483244689246 -0.19613374929 0
0.47682251718 -0.19611951833 0
0.479526595497 -0.181058479806 0
0.482158246883 -0.191349568643 0
0.482038191966 -0.179165832618 0
0.480224781729 -0.17777874285 0
0.479953402908 -0.181072622543 0
0.477114296393 -0.193227770519 0
0.478024036766 -0.191509386662 0
0.479061345131 -0.193972587835 0
0.481129932296 -0.193938772038 0
0.480372463604 -0.18719481818 0
0.480460932552 -0.184063080322 0
0.479695078675 -0.177973954178 0
0.482429857893 -0.197815892004 0
0.477472367721 -0.193880924029 0
0.482669084428 -0.193852502324 0
0.481851485737 -0.189046100504 0
0.477426358748 -0.197653381471 0
0.479200596965 -0.198929531895 0
0.482924549738 -0.192492635863 0
0.478146813234 -0.19558639045 0
0.480397075613 -0.182820547953 0
0.481650816947 -0.18907169521 0
0.48183110852 -0.188664411046 0
0.480527412125 -0.18491431219 0
0.481349880398 -0.187033403769 0
0.4785985256 -0.189131527018 0
0.476913641346 -0.195189543181 0
0.481535289028 -0.180775242656 0
0.481280231861 -0.182116032236 0
0.47700015882 -0.194772592777 0
0.483142776931 -0.194748536392 0
0.478733981496 -0.194462788275 0
0.481451112156 -0.194422452999 0
0.47995599555 -0.182212380162 0
0.482391859176 -0.192626159156 0
0.482353949248 -0.193678975318 0
0.479830295991 -0.18284872724 0
0.478315689424 -0.188721225714 0
0.479612241975 -0.185802059185 0
0.477543572638 -0.192886423146 0
0.477210981531 -0.195520010274 0
0.482940247218 -0.195465634877 0
0.480258869869 -0.19841860047 0
0.480711610904 -0.186335574142 0
0.480677793611 -0.187945069735 0
0.477216931132 -0.192480050239 0
0.480609466562 -0.185758504515 0
0.478650087851 -0.180753003783 0
0.477388486089 -0.192919452833 0
0.480717406804 -0.187193599857 0
0.480893367653 -0.199061193141 0
0.48300093124 -0.182625737473 0
0.479555548044 -0.187966263683 0
0.479191376948 -0.196184714991 0
0.480273305544 -0.181062686525 0
0.479599010361 -0.186469453656 0
0.479966842261 -0.184071675067 0
0.482953895826 -0.18421345861 0
0.477195423678 -0.182624500448 0
0.479536093055 -0.187175212221 0
0.477278356599 -0.18423461309 0
0.480093479081 -0.180414122999 0
0.480231062362 -0.184009543035 0
0.48028337547 -0.178687033732 0
0.483632073329 -0.195902852207 0
0.476489863606 -0.195960822019 0
0.482894062902 -0.181170720416 0
0.482552754089 -0.180041796874 0
0.47972651759 -0.198787164638 0
0.47769896197 -0.180040203977 0
0.477336757219 -0.181198233914 0
0.48277181032 -0.186069930614 0
0.482277113298 -0.18790604279 0
0.480180390037 -0.182407995871 0
0.477461246604 -0.186079604267 0
0.477960826864 -0.187925317836 0
0.483240269325 -0.194822974599 0
0.481469935982 -0.196598411138 0
0.479903515959 -0.186902300174 0
0.480950730572 -0.177920389401 0
0.478772772342 -0.179693822256 0
0.481563275252 -0.178377729507 0
0.480787646684 -0.181249862864 0
0.483047620247 -0.193825501586 0
0.483377464592 -0.195573968021 0
0.476758372893 -0.195627117939 0
0.477724682132 -0.193611292254 0
0.483522128734 -0.195271810113 0
0.476602215093 -0.195312702004 0
0.48038874645 -0.193596507905 0
0.479430756443 -0.185602151111 0
0.480531671702 -0.198764638677 0
0.479666477436 -0.178710575124 0
0.480869490185 -0.18839393956 0
0.480633210437 -0.191731591151 0
0.479586615605 -0.191732043239 0
0.476929215695 -0.194394409761 0
0.480883425855 -0.186136816281 0
0.478455928497 -0.182966250997 0
0.480329265348 -0.183793332271 0
0.482578239455 -0.195623274038 0
0.48006229245 -0.182508967012 0
0.479279096553 -0.186044810839 0
0.481524317669 -0.179796857451 0
0.480103266481 -0.182150055279 0
0.4768246704 -0.194055879755 0
0.479144125325 -0.189763011276 0
0.479702754214 -0.180007523224 0
0.479743627041 -0.190223019234 0
0.479211086471 -0.187891953419 0
0.482014060621 -0.184285315058 0
0.480231175296 -0.190109290877 0
0.479985706777 -0.190118586431 0
0.478219836371 -0.184297879388 0
0.480366468501 -0.186085571861 0
0.480608688915 -0.179606705325 0
0.482095717159 -0.183088520524 0
0.483558280834 -0.195372501235 0
0.476552844507 -0.195377185996 0
0.479203028818 -0.19914120571 0
0.479827566941 -0.183796119313 0
0.483294739327 -0.194012945381 0
0.480365219775 -0.179766638688 0
0.478527746332 -0.178605399498 0
0.477315487239 -0.195163698154 0
0.482838245112 -0.195115695456 0
0.477701131379 -0.19567283133 0
0.48246276202 -0.195613668865 0
0.479277169925 -0.179120718002 0
0.47734843161 -0.192293135888 0
0.481834406187 -0.181985246666 0
0.483166176944 -0.19577253396 0
0.480768270619 -0.185913028949 0
0.4788484642 -0.181703357561 0
0.483209479698 -0.194365668747 0
0.477116678531 -0.195967928884 0
0.48303200602 -0.195903122277 0
0.480788567058 -0.193185728501 0
0.482091639491 -0.191559461408 0
0.481452497473 -0.185810032326 0
0.47755254013 -0.194371672945 0
0.482608102136 -0.1943343393 0
0.478634075709 -0.191586083826 0
0.480049087541 -0.182876575981 0
0.481510314469 -0.191603976717 0
0.48075876031 -0.185202843601 0
0.480792852133 -0.178539825497 0
0.477625869436 -0.191078539939 0
0.478783121454 -0.185850743677 0
0.47943703038 -0.191366054958 0
0.480764506136 -0.191363700087 0
0.481663151182 -0.19309600084 0
0.478689232707 -0.189351045206 0
0.479131093254 -0.199249149365 0
0.478317006094 -0.195075708617 0
0.481860149967 -0.195026509461 0
0.481086972262 -0.179379988021 0
0.481578007748 -0.189499627616 0
0.478655948336 -0.189517643553 0
0.479778779619 -0.184497279769 0
0.480143461269 -0.182936116232 0
0.479374155485 -0.19858953924 0
0.479529990632 -0.188686352156 0
0.478991642076 -0.191725245974 0
0.482745193472 -0.192062343745 0
0.480555254615 -0.190835215036 0
0.480681290156 -0.18875106049 0
0.480406612069 -0.184376197796 0
0.483626007204 -0.195659286511 0
0.476492976704 -0.195707097256 0
0.478987088274 -0.187856640093 0
0.478173425466 -0.19358509105 0
0.481999193066 -0.193546601316 0
0.482089837766 -0.190025891402 0
0.478755186959 -0.193399001538 0
0.481413516663 -0.193357725691 0
0.476358716305 -0.196128310665 0
0.483745366693 -0.196075149286 0
0.478845650408 -0.18697250374 0
0.48098108222 -0.197213637174 0
0.48304995854 -0.193297408998 0
0.48091794265 -0.191843099712 0
0.481521058227 -0.189436220188 0
0.480132729452 -0.182539901264 0
0.479818348963 -0.185653230868 0
0.477970879988 -0.17935918535 0
0.482099999985 -0.192695085798 0
0.483376138732 -0.194499329621 0
0.476749675518 -0.194531186719 0
0.477829123293 -0.192250036224 0
0.478086523242 -0.190015117799 0
0.480453723253 -0.184310351689 0
0.478698057516 -0.190170039061 0
0.479775983732 -0.181360705387 0
0.481659664267 -0.18992311731 0
0.481075209988 -0.189493194334 0
0.479681679202 -0.194728052396 0
0.481237275314 -0.187997483738 0
0.48205306962 -0.180544728959 0
0.481931240838 -0.188954131678 0
0.482981287945 -0.192696468461 0
0.480342255301 -0.195701202075 0
0.478382486122 -0.188536796625 0
0.479732780186 -0.187971838494 0
0.478955746985 -0.197359749981 0
0.478350390871 -0.193128027235 0
0.478688297143 -0.187644798031 0
0.479798266118 -0.183945475412 0
0.478797580993 -0.188111456835 0
0.477951625373 -0.191490465418 0
0.478171642951 -0.180538187039 0
0.477991768812 -0.181523003494 0
0.476917048016 -0.196013054043 0
0.483225465353 -0.195947538831 0
0.483696027346 -0.195881466389 0
0.476409606064 -0.195928305347 0
0.480529045529 -0.177692028638 0
0.480410381505 -0.18102648643 0
0.481491675877 -0.187646141058 0
0.479987518886 -0.182788284208 0
0.482100282568 -0.194611536637 0
0.478588436369 -0.197717980259 0
0.483154680262 -0.193466967859 0
0.480346633893 -0.183704899596 0
0.480208376092 -0.185813902377 0
0.481266425029 -0.187239079119 0
0.478596942955 -0.190166479889 0