# vtk DataFile Version 2.0
Generated with Solid Solver
ASCII
DATASET UNSTRUCTURED_GRID
POINTS 999 float 
0.2 4.325 0.0
1.4 4.325 0.0
1.4 4.825 0.0
0.2 4.825 0.0
1.4 4.34523264049 0.0
1.4 4.36751203886 0.0
1.4 4.39204525371 0.0
1.4 4.4190602782 0.0
1.4 4.44880817466 0.0
1.4 4.48156541084 0.0
1.4 4.51763640748 0.0
1.4 4.5573564007 0.0
1.4 4.60109451608 0.0
1.4 4.64925723872 0.0
1.4 4.70229217343 0.0
1.4 4.76069218095 0.0
1.33333333333 4.825 0.0
1.26666666667 4.825 0.0
1.2 4.825 0.0
1.13333333333 4.825 0.0
1.06666666667 4.825 0.0
1.0 4.825 0.0
0.933333333334 4.825 0.0
0.866666666668 4.825 0.0
0.800000000001 4.825 0.0
0.733333333334 4.825 0.0
0.666666666668 4.825 0.0
0.600000000001 4.825 0.0
0.533333333334 4.825 0.0
0.466666666667 4.825 0.0
0.4 4.825 0.0
0.333333333334 4.825 0.0
0.266666666667 4.825 0.0
0.2 4.76069218095 0.0
0.2 4.70229217343 0.0
0.2 4.64925723872 0.0
0.2 4.60109451608 0.0
0.2 4.5573564007 0.0
0.2 4.51763640748 0.0
0.2 4.48156541084 0.0
0.2 4.44880817466 0.0
0.2 4.4190602782 0.0
0.2 4.39204525371 0.0
0.2 4.36751203886 0.0
0.2 4.34523264049 0.0
0.212131543907 4.30926329506 0.0
0.224675715302 4.29385348652 0.0
0.23762369102 4.27878141198 0.0
0.250966423879 4.26405760374 0.0
0.264694484585 4.24969246611 0.0
0.278798324214 4.23569599189 0.0
0.293267939266 4.22207810803 0.0
0.308093289028 4.20884826442 0.0
0.323263842145 4.19601585877 0.0
0.338769084145 4.18358978512 0.0
0.354597997314 4.17157887342 0.0
0.37073960121 4.15999145532 0.0
0.387182441982 4.14883575334 0.0
0.403915091795 4.13811952025 0.0
0.420925712897 4.12785033813 0.0
0.438202430937 4.11803537461 0.0
0.455733079095 4.10868154223 0.0
0.473505374364 4.09979539439 0.0
0.491506842655 4.09138316882 0.0
0.509724826085 4.0834507802 0.0
0.528146580414 4.07600377808 0.0
0.546759103951 4.06904741762 0.0
0.56554943677 4.06258654322 0.0
0.584504260001 4.05662573401 0.0
0.60361041518 4.0511691282 0.0
0.622854334779 4.04622060039 0.0
0.642222678753 4.04178358113 0.0
0.661701681839 4.03786122392 0.0
0.681277836375 4.03445624851 0.0
0.700937245817 4.03157107217 0.0
0.720666255912 4.02920769845 0.0
0.740450894784 4.02736780161 0.0
0.76027736978 4.02605266363 0.0
0.780131702711 4.02526321235 0.0
0.799999999998 4.025 0.0
0.819868297285 4.02526321235 0.0
0.839722630216 4.02605266363 0.0
0.859549105212 4.02736780161 0.0
0.879333744085 4.02920769845 0.0
0.89906275418 4.03157107217 0.0
0.918722163621 4.03445624851 0.0
0.938298318157 4.03786122392 0.0
0.957777321244 4.04178358113 0.0
0.977145665218 4.04622060039 0.0
0.996389584817 4.0511691282 0.0
1.01549574 4.05662573401 0.0
1.03445056323 4.06258654322 0.0
1.05324089605 4.06904741762 0.0
1.07185341958 4.07600377808 0.0
1.09027517391 4.0834507802 0.0
1.10849315734 4.09138316882 0.0
1.12649462563 4.09979539439 0.0
1.1442669209 4.10868154222 0.0
1.16179756906 4.1180353746 0.0
1.1790742871 4.12785033813 0.0
1.1960849082 4.13811952024 0.0
1.21281755802 4.14883575334 0.0
1.22926039879 4.15999145532 0.0
1.24540200269 4.17157887342 0.0
1.26123091585 4.18358978512 0.0
1.27673615785 4.19601585877 0.0
1.29190671097 4.20884826442 0.0
1.30673206073 4.22207810803 0.0
1.32120167579 4.23569599189 0.0
1.33530551541 4.24969246611 0.0
1.34903357612 4.26405760374 0.0
1.36237630898 4.27878141198 0.0
1.3753242847 4.29385348652 0.0
1.38786845609 4.30926329506 0.0
1.05632730172 4.46025283906 0.0
0.549964048968 4.4630053958 0.0
0.806135520676 4.31186690218 0.0
0.603895783049 4.26079310371 0.0
1.22984770884 4.38318704125 0.0
0.3703382852 4.38423552752 0.0
0.995322815839 4.25565031136 0.0
0.728315816804 4.1765935937 0.0
0.872128173905 4.17288724072 0.0
1.14059401893 4.27298468684 0.0
0.461553191009 4.27181671009 0.0
0.784706775856 4.56821390922 0.0
0.398287125272 4.57945970538 0.0
1.20625306554 4.58334743514 0.0
0.624100842742 4.1589824436 0.0
0.5257453845 4.18811776279 0.0
0.978502430793 4.15488737058 0.0
1.07419209812 4.18825154482 0.0
0.364313698077 4.28677035763 0.0
1.23509538257 4.28681716733 0.0
0.68124123937 4.39284548972 0.0
1.31679378691 4.35012066749 0.0
0.283206213094 4.35012066749 0.0
0.791498533126 4.11467141721 0.0
0.931481076052 4.3801344917 0.0
0.966719065571 4.62778042839 0.0
0.684451667517 4.11068036752 0.0
0.618335406951 4.62686910993 0.0
0.450982331762 4.19686171732 0.0
0.915674266355 4.10995633851 0.0
1.14900051594 4.19689012964 0.0
1.30193709687 4.4481448133 0.0
0.298574667609 4.44816296922 0.0
1.05734787542 4.34990107617 0.0
0.539273225177 4.35252599628 0.0
0.709896798149 4.27721026287 0.0
0.895708916005 4.26924194389 0.0
0.813273511364 4.43835766235 0.0
0.559289631452 4.13230879113 0.0
1.04001407307 4.13281539633 0.0
0.801161810585 4.23146244955 0.0
0.665113819616 4.52056650186 0.0
0.852577362173 4.09111846388 0.0
0.390256727869 4.2242806298 0.0
1.20974450479 4.22428104599 0.0
0.921542541183 4.52778058719 0.0
1.14030889032 4.36437344809 0.0
1.15600477272 4.46808538305 0.0
0.435243219029 4.4750581257 0.0
0.462045157798 4.36654654286 0.0
0.735806812738 4.08472269746 0.0
1.30082934537 4.29793772796 0.0
0.299170654625 4.29793772796 0.0
0.533651712118 4.26265983853 0.0
0.666130919144 4.21652131559 0.0
1.0676097303 4.26179469382 0.0
1.08054433577 4.58530946155 0.0
0.506773767255 4.56568295079 0.0
0.626745312844 4.10124420826 0.0
0.933845304214 4.2106954732 0.0
0.293717639664 4.55175000185 0.0
0.312505022079 4.66426411351 0.0
1.3058164124 4.55154930624 0.0
1.29054387065 4.66302765963 0.0
0.973467966326 4.09941619478 0.0
0.487935413164 4.15087084015 0.0
0.461549079751 4.68836834982 0.0
1.11203248746 4.15093503889 0.0
1.14453515393 4.70617370303 0.0
0.840217564202 4.68891146633 0.0
0.585347033288 4.20539048534 0.0
0.619177396637 4.34227576306 0.0
0.331644410315 4.24962190462 0.0
1.26835558968 4.24962190462 0.0
1.01536156978 4.19987473052 0.0
0.809331033562 4.07065709122 0.0
0.982321540791 4.33437358971 0.0
0.725600576914 4.66999651799 0.0
0.812291456186 4.16642942492 0.0
0.335887692543 4.33918235669 0.0
1.26344844681 4.34017131907 0.0
1.23449730504 4.49457441524 0.0
1.34334172095 4.40539551957 0.0
0.256658279045 4.40539551957 0.0
0.741646926828 4.34287908527 0.0
0.674799084703 4.16673768522 0.0
1.18647435526 4.30955189749 0.0
0.360563250283 4.49596479569 0.0
0.873716483853 4.33845499203 0.0
0.418704489949 4.31146264283 0.0
0.492670911224 4.22931614809 0.0
0.403480880356 4.19046776931 0.0
1.19651541215 4.1904686246 0.0
0.728649253738 4.46214546491 0.0
1.00883674467 4.40174664879 0.0
1.11035034557 4.23161841276 0.0
0.261968539765 4.3130079512 0.0
1.33803146023 4.3130079512 0.0
0.74649980488 4.1318354354 0.0
0.927597725248 4.1577597079 0.0
0.892956618256 4.07619338913 0.0
0.659794281787 4.07951387326 0.0
0.587663534405 4.09486537006 0.0
0.942353209926 4.07935300973 0.0
1.01493747319 4.09476013719 0.0
0.613130017774 4.41369803882 0.0
0.449373501074 4.15377191978 0.0
0.514840228377 4.12225850006 0.0
0.497057592 4.41333092106 0.0
1.15061382426 4.15379293084 0.0
1.08514419473 4.12228328152 0.0
0.745617635771 4.23098957592 0.0
0.87523452213 4.59853036549 0.0
0.855262884783 4.2258970831 0.0
1.01126200032 4.53280064162 0.0
1.09391916408 4.40632408872 0.0
1.04436265455 4.71482000827 0.0
0.314320181089 4.38773968607 0.0
1.28649331902 4.38743720145 0.0
0.771211579291 4.06316862024 0.0
0.432259099658 4.24006002157 0.0
0.698583889427 4.07144353526 0.0
1.16802128371 4.238862881 0.0
1.09587629216 4.3086676659 0.0
1.35920470355 4.35666960471 0.0
0.240795296449 4.35666960471 0.0
0.504003580654 4.30815758118 0.0
0.579942709371 4.5342075073 0.0
0.875915224914 4.12815792528 0.0
0.426503136644 4.40717733008 0.0
0.57541416445 4.30365301522 0.0
0.683877978289 4.33161848113 0.0
0.888061695889 4.44633509246 0.0
0.26012287522 4.49859249103 0.0
1.33987712478 4.49859249103 0.0
0.801393572636 4.37060096582 0.0
0.558460082533 4.72496728209 0.0
1.1741923373 4.41132830101 0.0
0.83220012886 4.12779415912 0.0
1.02815069622 4.30053276509 0.0
0.948308583502 4.2880204454 0.0
0.846588933095 4.50834596945 0.0
0.343666800815 4.43485820652 0.0
1.25632767671 4.43480360053 0.0
0.97849585731 4.47031535602 0.0
1.10170977548 4.51507265998 0.0
0.662193131828 4.26809398492 0.0
0.400503668388 4.26881657105 0.0
1.20117145985 4.26130427377 0.0
0.350957892513 4.21796558019 0.0
1.24904210749 4.21796558019 0.0
0.771964652188 4.18905379403 0.0
0.932165148285 4.72736281402 0.0
0.373672364094 4.73321357765 0.0
0.760245937722 4.28409350779 0.0
0.848718469252 4.05767763075 0.0
1.23385612561 4.7358294747 0.0
0.846421485813 4.28065918421 0.0
0.651597058631 4.13043284014 0.0
0.650489852552 4.72138045504 0.0
0.58457834847 4.16375088261 0.0
0.48701309933 4.18859927013 0.0
0.708495738406 4.58856947756 0.0
1.11203398596 4.18878062515 0.0
0.54865558244 4.10250047869 0.0
1.05126102377 4.10234629471 0.0
0.300013757486 4.26259646442 0.0
1.29998624251 4.26259646442 0.0
0.9465032388 4.12718070354 0.0
0.708587583337 4.14146095907 0.0
0.973348904468 4.19537871864 0.0
0.628721855632 4.19538356945 0.0
0.380175010018 4.34021880077 0.0
0.662092932411 4.45899041267 0.0
1.05133526787 4.22221992007 0.0
0.528087045766 4.64327882187 0.0
1.22233124543 4.33521693908 0.0
1.19001193434 4.36273586668 0.0
0.853024099244 4.39544003492 0.0
0.542800296246 4.22324366905 0.0
0.247706318737 4.45239119247 0.0
1.35229368126 4.45239119247 0.0
0.599153768578 4.12953797005 0.0
1.01616570494 4.16227683178 0.0
0.744705786938 4.40569544575 0.0
1.31929001115 4.73702550052 0.0
0.777615355331 4.15113602511 0.0
1.33132411895 4.60631378639 0.0
0.265621610877 4.60975488866 0.0
0.532023338888 4.15374454388 0.0
1.0697792195 4.15241429251 0.0
0.286371037106 4.73010312914 0.0
0.497725885905 4.50153668256 0.0
0.46053455822 4.31587947599 0.0
0.433799237968 4.54629400991 0.0
0.388624781906 4.65094200004 0.0
0.554823673752 4.40451940232 0.0
1.1421595646 4.31818301431 0.0
1.14760043966 4.61655103139 0.0
1.21258698805 4.65320200685 0.0
1.16279096046 4.53292621409 0.0
0.995762647814 4.12508772517 0.0
0.456229040627 4.61456685246 0.0
0.707289391156 4.21520271873 0.0
0.763036833302 4.74285445535 0.0
0.78386198569 4.49787013126 0.0
[...]
POINT_DATA 999
VECTORS Displacement float
0.398609675691 -0.118447700404 0
0.401387420408 -0.118452045712 0
0.4 -0.12 0
0.4 -0.12 0
0.401476824481 -0.118444423808 0
0.401563775132 -0.11843324726 0
0.401641586683 -0.118419015062 0
0.401706523156 -0.118409354722 0
0.401742999711 -0.118408676375 0
0.401762150083 -0.1184215723 0
0.401737749222 -0.118452125712 0
0.401665606362 -0.118505147385 0
0.401538302556 -0.118599717418 0
0.401332741098 -0.118748218687 0
0.401039784165 -0.118981312655 0
0.40062371196 -0.119347721736 0
0.4 -0.12 0
0.4 -0.12 0
0.4 -0.12 0
0.4 -0.12 0
0.4 -0.12 0
0.4 -0.12 0
0.4 -0.12 0
0.4 -0.12 0
0.4 -0.12 0
0.4 -0.12 0
0.4 -0.12 0
0.4 -0.12 0
0.4 -0.12 0
0.4 -0.12 0
0.4 -0.12 0
0.4 -0.12 0
0.4 -0.12 0
0.399380210031 -0.119350896771 0
0.39896425487 -0.118984545065 0
0.398658902723 -0.11874908758 0
0.39845965315 -0.118597420456 0
0.398333523608 -0.118501538274 0
0.398260365587 -0.118447943127 0
0.398235554339 -0.118417657162 0
0.398254621508 -0.118404759718 0
0.398291025398 -0.118405348395 0
0.398355857932 -0.118414881908 0
0.398433539697 -0.118429003077 0
0.398520363426 -0.118440108915 0
0.398683124629 -0.118401132347 0
0.398763823512 -0.118350151961 0
0.398851307133 -0.118291115863 0
0.398947103226 -0.118223951201 0
0.399050456293 -0.118145927221 0
0.399158698855 -0.11805516771 0
0.399272759845 -0.117953207218 0
0.399396699747 -0.117838728524 0
0.399528072825 -0.117703811715 0
0.399661491797 -0.117558613813 0
0.39980247169 -0.117394021253 0
0.399953919704 -0.117210435574 0
0.40010838871 -0.117002181252 0
0.400271282058 -0.116771477021 0
0.400440759195 -0.116514359358 0
0.400621101351 -0.116223948105 0
0.40080521175 -0.115895364706 0
0.401010073737 -0.115521031637 0
0.401213164189 -0.115093029335 0
0.401451353372 -0.1145457763 0
0.401708591232 -0.113769483245 0
0.40187721036 -0.113019280872 0
0.401973801211 -0.112311857057 0
0.402009378231 -0.111629796027 0
0.401995328354 -0.111000999229 0
0.401924410604 -0.110412359328 0
0.401816795058 -0.109892834745 0
0.401669881143 -0.109420729722 0
0.401500479278 -0.10901383336 0
0.401294624539 -0.108654572269 0
0.401070123712 -0.108363661985 0
0.400816799563 -0.108129221642 0
0.400556396993 -0.107961640989 0
0.400284145717 -0.107858278274 0
0.39998233619 -0.107822714516 0
0.399699595789 -0.10786662455 0
0.399425986388 -0.107970760659 0
0.399166233258 -0.108136659503 0
0.39892217216 -0.108369251545 0
0.398696964985 -0.108660158256 0
0.398489850762 -0.109015976015 0
0.398310668408 -0.109434295338 0
0.398174904597 -0.109899600994 0
0.398070577003 -0.110423828951 0
0.398000198175 -0.111009248752 0
0.39798427576 -0.111635370718 0
0.398020646324 -0.112321892845 0
0.398116635907 -0.113029609365 0
0.398289235734 -0.113784353401 0
0.39854484951 -0.114553326883 0
0.398784061036 -0.115102131397 0
0.398986823575 -0.115528285965 0
0.399191352969 -0.115901650161 0
0.399375179168 -0.116229663628 0
0.399555366549 -0.116519790992 0
0.399724828731 -0.116776738144 0
0.399887758697 -0.117007297386 0
0.40004227779 -0.117215460901 0
0.400193811623 -0.117399009453 0
0.400334920068 -0.117563571111 0
0.400468495648 -0.117708728614 0
0.400599988173 -0.117843559122 0
0.400724009105 -0.117957917128 0
0.400838122733 -0.11805977408 0
0.400946423617 -0.11815044517 0
0.401049813765 -0.118228385344 0
0.401145641582 -0.118295490641 0
0.401233163099 -0.118354492681 0
0.401313910759 -0.118405462209 0
0.401281412436 -0.116729609671 0
0.398743304952 -0.116710089648 0
0.400033751979 -0.113152195722 0
0.399121291846 -0.113810445138 0
0.401582198386 -0.117578339284 0
0.398415252314 -0.11757642307 0
0.400855928878 -0.113732645892 0
0.399871623979 -0.11087364916 0
0.400108199224 -0.110814045188 0
0.401147412068 -0.116190677965 0
0.398856236056 -0.116147292208 0
0.399928114768 -0.11713255349 0
0.398630728199 -0.118445674813 0
0.401360599529 -0.118486894477 0
0.399870670487 -0.112016246466 0
0.399493715963 -0.114526190607 0
0.400077189378 -0.11201980438 0
0.400505459021 -0.114528806213 0
0.398789435705 -0.117368767694 0
0.401207254876 -0.117367128859 0
0.399284672033 -0.114912921102 0
0.401502170915 -0.118069369137 0
0.398495273334 -0.118065124118 0
0.400023176879 -0.109403742244 0
0.400783099258 -0.114810580576 0
0.400635279228 -0.118102194794 0
0.400375739048 -0.110174565782 0
0.39931001316 -0.118128348633 0
0.399463058766 -0.11605789766 0
0.399609205399 -0.110168368906 0
0.400534401257 -0.116063707032 0
0.401708309612 -0.118182101129 0
0.398290257143 -0.118177174914 0
0.401279648427 -0.11564642484 0
0.398706848718 -0.115706289965 0
0.399521355552 -0.112854547058 0
0.400489566904 -0.112764052811 0
0.400082438065 -0.115271564372 0
0.400227335826 -0.11321514984 0
0.399777584239 -0.113209987461 0
0.400002750543 -0.111655465461 0
0.39929654372 -0.116743499592 0
0.399709085114 -0.109149436838 0
0.399238007203 -0.116995110201 0
0.400758320667 -0.117000605151 0
0.400629820143 -0.11678921999 0
0.401466213323 -0.116689529751 0
0.401525205404 -0.117501318532 0
0.398459642229 -0.117599029796 0
0.3985329501 -0.116672504356 0
0.400387938362 -0.109119620474 0
0.401258529065 -0.11792677066 0
0.398738506819 -0.117922238622 0
0.39895149889 -0.114958533477 0
0.399523015794 -0.112256065987 0
0.401041466157 -0.114977385695 0
0.401094739434 -0.118044757657 0
0.398814485949 -0.117921673937 0
0.400694558569 -0.111085395233 0
0.40044309628 -0.112162736678 0
0.398401111601 -0.118538502079 0
0.398892647116 -0.119073878302 0
0.401598893034 -0.11854050278 0
0.401119780021 -0.119068650189 0
0.399268588595 -0.111071884725 0
0.400001176303 -0.115225168479 0
0.399199447566 -0.119045373294 0
0.399995196988 -0.115231810764 0
0.40072220618 -0.11918941665 0
0.400124134102 -0.118616518823 0
0.399382282218 -0.113427769355 0
0.398994277019 -0.114702801112 0
0.399051204027 -0.117636056496 0
0.400945565483 -0.117640928243 0
0.400570643287 -0.113378949428 0
0.399920493213 -0.108595638452 0
0.400998979753 -0.114620241384 0
0.399750857982 -0.118425923377 0
0.400010424725 -0.11040694513 0
0.398536140998 -0.117709886793 0
0.401464736391 -0.117711243516 0
0.401621499252 -0.118088064114 0
0.401669927974 -0.11824993557 0
0.398327736149 -0.118246134157 0
0.399643590716 -0.113810737533 0
0.399852166629 -0.111285643059 0
0.401332111306 -0.116916168118 0
0.398368930786 -0.118112281072 0
0.400445929286 -0.113805967427 0
0.398657229673 -0.116862028904 0
0.399129631379 -0.115435974358 0
0.399574763511 -0.116790878867 0
0.400421424844 -0.116795824981 0
0.399584311712 -0.115734376288 0
0.401143215784 -0.115714706494 0
0.400882909813 -0.115508686581 0
0.398662130281 -0.118159271489 0
0.401334903574 -0.118163592689 0
0.400077022731 -0.109899478777 0
0.400075124775 -0.11116900873 0
0.399335316298 -0.109281458022 0
0.400923260032 -0.11006863436 0
0.400952619482 -0.111979431594 0
0.399056416875 -0.110117709648 0
0.399035448323 -0.112060881684 0
0.398951779248 -0.115678857233 0
0.400014358273 -0.116029555594 0
0.400452268062 -0.114453135455 0
0.39855882708 -0.116677062098 0
0.399981535932 -0.116035257253 0
0.399543989164 -0.114461339644 0
0.399770959813 -0.111788627121 0
0.40033350937 -0.117575232964 0
0.400220865096 -0.111699933472 0
0.401000676056 -0.117224741053 0
0.401414971974 -0.116540053973 0
0.400545441373 -0.119108459191 0
0.398383172635 -0.117953397409 0
0.401614295855 -0.11796122589 0
0.400245245277 -0.108514767145 0
0.399077424003 -0.116458857775 0
0.400774996141 -0.109307789146 0
0.400908395445 -0.116464473709 0
0.401267560624 -0.115773687725 0
0.401528010153 -0.11827697436 0
0.398469299105 -0.11827281108 0
0.398730865775 -0.115768067382 0
0.398971449934 -0.117281896056 0
0.399863822554 -0.110012333785 0
0.39843283301 -0.117243548413 0
0.39889815203 -0.114742872416 0
0.399318895562 -0.113957892906 0
0.400523692394 -0.115554637882 0
0.398275763067 -0.118405678281 0
0.401721360811 -0.118409385844 0
0.400008919453 -0.114171605549 0
0.399503317075 -0.119188033122 0
0.40156656201 -0.117278814274 0
0.399937392993 -0.109710605994 0
0.401101906388 -0.114759431771 0
0.400773115802 -0.113581412776 0
0.400259423666 -0.11634243194 0
0.398330192656 -0.117929790266 0
0.401668163179 -0.117932917791 0
0.400965071482 -0.11632702999 0
0.401327953639 -0.117527390945 0
0.399318478977 -0.113149050308 0
0.398889066176 -0.116942943644 0
0.401056708314 -0.116952240359 0
0.399312599324 -0.117437156982 0
0.400684046857 -0.117442139825 0
0.39992985811 -0.110876811607 0
0.400294098705 -0.119093000301 0
0.399369985924 -0.119456123294 0
0.399780209298 -0.112713278766 0
0.399531213802 -0.108539804318 0
0.400615680231 -0.119476851922 0
0.400250259197 -0.112675839111 0
0.400206701541 -0.111041122611 0
0.399655193693 -0.119051828282 0
0.399782698106 -0.112930994578 0
0.399513480766 -0.115358378855 0
0.399589401807 -0.117481545057 0
0.400488233939 -0.115347319322 0
0.400856368763 -0.113248598431 0
0.399138585752 -0.113254499596 0
0.398960137139 -0.117902646274 0
0.401036755563 -0.117907280215 0
0.39974841982 -0.11096496942 0
0.400057057134 -0.110413238931 0
0.400451913604 -0.112527843019 0
0.399549125585 -0.11248444767 0
0.398539615684 -0.117348820115 0
0.399220230303 -0.115953566201 0
0.400787125779 -0.114329304306 0
0.399119331275 -0.118529332561 0
0.401440979012 -0.11735953861 0
0.40151022555 -0.117165766817 0
0.400329185124 -0.114660868807 0
0.39919388142 -0.114451264492 0
0.398260400993 -0.118334834535 0
0.401737254231 -0.118338323238 0
0.400259206004 -0.112141351465 0
0.400197218309 -0.112938231811 0
0.39965919146 -0.114828494584 0
0.400664862289 -0.119466097912 0
0.399996161415 -0.110125554438 0
0.401446235085 -0.118764043837 0
0.39856260488 -0.118775819545 0
0.399904735814 -0.114140166481 0
0.400070890456 -0.114186516326 0
0.399296257918 -0.119432906309 0
0.398642872339 -0.117412607698 0
0.398660481996 -0.116385979352 0
0.398592069367 -0.118093850036 0
0.398916379332 -0.118924758806 0
0.398724045456 -0.116070656277 0
0.401347689813 -0.116436756774 0
0.401136413615 -0.118535887082 0
0.401074100467 -0.118941793751 0
0.401433651547 -0.117986111264 0
0.399669623962 -0.111959015008 0
0.398864442004 -0.118507899997 0
0.399666652048 -0.111775249791 0
0.399924653687 -0.119199677028 0
0.399911117188 -0.116165301843 0
0.40072711839 -0.114057346441 0
0.399917251356 -0.116529543527 0
0.400309724063 -0.111692237504 0
0.400078872791 -0.116534902405 0
0.401677973291 -0.118292248937 0
0.400598305638 -0.108722947611 0
0.398815295682 -0.117685410424 0
0.401181620642 -0.117690087124 0
0.399539713981 -0.11718472617 0
0.40045660801 -0.117189745785 0
0.398983366562 -0.116479917722 0
0.398471630928 -0.117175010324 0
0.400169811225 -0.109089191497 0
0.399556415893 -0.116798611255 0
0.399016507439 -0.117312558563 0
0.400980355718 -0.117316677447 0
0.398321512212 -0.11827186273 0
0.401620675096 -0.117734216085 0
0.400669909084 -0.112995729168 0
0.398820980707 -0.118094782503 0
0.401175973934 -0.118099240452 0
0.400803415591 -0.118723607141 0
0.398384230574 -0.117723072112 0
0.398575369913 -0.118292193835 0
0.401421771718 -0.118296456956 0
0.401182454622 -0.110880443227 0
0.400110925284 -0.111091780999 0
0.401377080274 -0.118724273358 0
0.398617445229 -0.118721209114 0
0.398910338401 -0.115573699319 0
0.400315284908 -0.109747769359 0
0.400013557282 -0.112245829757 0
0.399894203924 -0.109138616085 0
0.401387404303 -0.116190969083 0
0.401093020875 -0.115602318012 0
0.399107654177 -0.113993224069 0
0.39899493967 -0.109383417902 0
0.398845604392 -0.110909155662 0
0.401431328963 -0.117161560197 0
0.39856203414 -0.117920522342 0
0.401435521394 -0.117924449397 0
0.40067158478 -0.117411290284 0
0.398608221881 -0.116200542032 0
0.399074109514 -0.114163738288 0
0.400351508613 -0.113689240096 0
0.399264808703 -0.117404254721 0
0.399930313861 -0.118118758877 0
0.400357058363 -0.115440587919 0
0.399639297204 -0.115447308491 0
0.399124976658 -0.115989581132 0
0.400836538152 -0.115995885846 0
0.398335494605 -0.118527180642 0
0.401663285349 -0.118530005792 0
0.399279526141 -0.113197357901 0
0.400937445339 -0.114264152235 0
0.399572839354 -0.113816351521 0
0.400873647635 -0.117989028736 0
0.399308655744 -0.108771702802 0
0.400804336838 -0.115648652848 0
0.401617006341 -0.118322905965 0
0.398380453252 -0.118318855913 0
0.399396687742 -0.116511479068 0
0.399637272965 -0.109579814441 0
0.400599742004 -0.116516507967 0
0.399495784172 -0.112452019783 0
0.400365877728 -0.118360260732 0
0.400417078655 -0.119507822061 0
0.401294424416 -0.116080521047 0
0.398822848412 -0.115375515102 0
0.401618935909 -0.118109141137 0
0.398378822717 -0.118105322433 0
0.40153280924 -0.118404389076 0
0.398459686783 -0.118387399683 0
0.399907135718 -0.110522272322 0
0.401205438395 -0.116634610683 0
0.40113071056 -0.109469311764 0
0.400056969824 -0.108228500012 0
0.40001988605 -0.110337091691 0
0.398482671176 -0.117170588846 0
0.398802742694 -0.11669824924 0
0.399248604334 -0.117662954036 0
0.400748128002 -0.11766782836 0
0.400208792695 -0.113855937618 0
0.400470755661 -0.112308334625 0
0.399724768926 -0.108355050433 0
0.401112641054 -0.119078972287 0
0.398638656021 -0.117589064352 0
0.401352087713 -0.117594701736 0
0.401117420729 -0.115132818982 0
0.39879654842 -0.118999921167 0
0.399607364206 -0.119537893735 0
0.401505428334 -0.11689794958 0
0.399046350485 -0.118066493133 0
0.399761014591 -0.11182894893 0
0.400990036527 -0.115046883658 0
0.401174926003 -0.115218650164 0
0.400656286475 -0.113175254993 0
0.400959327303 -0.114155690661 0
0.3990795836 -0.115034906414 0
0.398466421812 -0.117996327168 0
0.400563159774 -0.110602122833 0
0.400242825203 -0.11163574314 0
0.398466312079 -0.117905494461 0
0.401530839956 -0.117915323883 0
0.399125965056 -0.117828473739 0
0.400870804239 -0.117833236427 0
0.400184839866 -0.111207191328 0
0.401261950932 -0.117137203676 0
0.401199924383 -0.117248803221 0
0.400238879103 -0.111844667487 0
0.398813113927 -0.115237283486 0
0.399614361974 -0.113143006108 0
0.398644965039 -0.117206058222 0
0.398554405108 -0.118186723141 0
0.401442782313 -0.118190986287 0
0.400126811024 -0.119288503321 0
0.399744338059 -0.114743626866 0
0.399772187525 -0.115628064132 0
0.398496678183 -0.116886569457 0
0.400429825858 -0.113135945753 0
0.399402102442 -0.110605430104 0
0.398600970368 -0.116976808572 0
0.400760923379 -0.114856048268 0
0.400423130021 -0.119601811141 0
0.40126464215 -0.11262126961 0
0.400227451739 -0.115636174231 0
0.399570592193 -0.118279983162 0
0.39997661776 -0.110331864597 0
0.400290609249 -0.114801265642 0
0.399863577069 -0.112120580767 0
0.400955115828 -0.113952430074 0
0.398698885617 -0.112640960896 0
0.399257334299 -0.114860821966 0
0.39904118537 -0.11396202561 0
0.3999958604 -0.109881648508 0
0.400150454297 -0.11208890178 0
0.400082708937 -0.108791003465 0
0.401710104048 -0.118336681181 0
0.398287523743 -0.118332879982 0
0.401450683964 -0.111343470179 0
0.40138137276 -0.110304360733 0
0.39985704792 -0.119456987589 0
0.398624709661 -0.110306633286 0
0.398552167333 -0.111378567116 0
0.400694748577 -0.115140442732 0
0.400400909961 -0.115880044716 0
0.399774217696 -0.111312141339 0
0.399301984504 -0.115148291285 0
0.39959522803 -0.115886114451 0
0.401568707785 -0.117861370317 0
0.400727400175 -0.118503486358 0
0.39987372948 -0.113694875307 0
0.40052258696 -0.108353494232 0
0.399329680296 -0.109723619005 0
0.400896878207 -0.10876872377 0
0.400103300137 -0.110709583539 0
0.401510205239 -0.117554128435 0
0.401614033327 -0.118221559041 0
0.398383505057 -0.118217580689 0
0.398790103071 -0.117216529975 0
0.401676446335 -0.118097316475 0
0.39832145617 -0.118093651769 0
0.400188237407 -0.117052639723 0
0.399226125915 -0.113588809338 0
0.400262235361 -0.119453312659 0
0.399750765837 -0.108829513988 0
0.400520362391 -0.114535786308 0
0.39982096091 -0.116968015981 0
0.40017519608 -0.116973121327 0
0.398431568314 -0.11775373215 0
0.400640078529 -0.113436326116 0
0.399582159482 -0.112542743784 0
0.399640153099 -0.112635578935 0
0.401257229978 -0.118139466451 0
0.399831224633 -0.111233091449 0
0.399342843212 -0.113399405645 0
0.400689734123 -0.109817407902 0
0.400015341999 -0.110962639882 0
0.398382065006 -0.117581253659 0
0.399442218979 -0.115228661226 0
0.399860965059 -0.109687389034 0
0.39981169912 -0.115413679197 0
0.399416986804 -0.114295478773 0
0.40041752113 -0.113713638508 0
0.399661378046 -0.116435328457 0
0.400335043174 -0.116440760034 0
0.399580843723 -0.11372063901 0
0.400221722303 -0.113262624631 0
0.400200686657 -0.109430013375 0
0.400588855114 -0.112747894869 0
0.401688245191 -0.118119265346 0
0.398310669853 -0.118105960791 0
0.399615512108 -0.119633471917 0
0.400333589236 -0.112670248261 0
0.401614390925 -0.117575620726 0
0.400087805911 -0.109491166358 0
0.399015331753 -0.108971201707 0
0.398591844707 -0.118059248512 0
0.401405204434 -0.118063547049 0
0.398738993752 -0.118247255446 0
0.401257997577 -0.118251606476 0
0.399564391079 -0.109171607708 0
0.398542315323 -0.116907910318 0
0.400582323095 -0.111717200291 0
0.401509881594 -0.118249399433 0
0.400788670144 -0.113866637596 0
0.399647777141 -0.11132825611 0
0.401566000194 -0.11775911382 0
0.39852093594 -0.118347614909 0
0.401476272283 -0.118351854051 0
0.400404708675 -0.116870921584 0
0.401129687725 -0.116259955711 0
0.400075986911 -0.114634388692 0
0.398677137449 -0.117775422112 0
0.40132001016 -0.11777965689 0
0.399060638286 -0.116809285586 0
0.399901591551 -0.111414802961 0
0.400917363011 -0.116827538702 0
0.400638354945 -0.112998545037 0
0.400380073166 -0.108743683311 0
0.398626984563 -0.116197996279 0
0.39992400292 -0.114657806157 0
0.399376544669 -0.116796573785 0
0.400619602488 -0.116801174339 0
0.400868795426 -0.116898110236 0
0.398992265036 -0.115825460707 0
0.399594081031 -0.119680599162 0
0.398969280543 -0.118039836678 0
0.401027608656 -0.118044400313 0
0.400475012532 -0.109383433514 0
0.400135990696 -0.116360311122 0
0.399859942325 -0.116365754906 0
0.399685047877 -0.112410334583 0
0.399682489726 -0.111748578369 0
0.399682865264 -0.119376634156 0
0.399321792683 -0.115724135253 0
0.399403050229 -0.11619386579 0
0.401438650738 -0.116822517377 0
0.400291477762 -0.115724118162 0
0.400675147225 -0.115757322222 0
0.400327826891 -0.112352099875 0
0.401710981295 -0.11824333719 0
0.39828687864 -0.118239855612 0
0.399050583471 -0.115062601122 0
0.398911192018 -0.117510469729 0
0.401084648383 -0.117511602383 0
0.401236074569 -0.115986433734 0
0.399134015173 -0.11746153168 0
0.400855910033 -0.117461492663 0
0.398250594557 -0.118388932112 0
0.401747141799 -0.118392528441 0
0.399038588969 -0.114147845907 0
0.400486730512 -0.118761271698 0
0.401533132143 -0.117219082866 0
0.400486799159 -0.116235823466 0
0.401008987928 -0.115867973979 0
0.400196303305 -0.111285531774 0
0.399356322073 -0.113894102274 0
0.398719347547 -0.109685521734 0
0.401101702019 -0.116769378852 0
0.401633334151 -0.11779179656 0
0.398364079007 -0.117789028727 0
0.398745524071 -0.116979304433 0
0.398762030225 -0.115977283029 0
0.400569177752 -0.112665066833 0
0.399189685787 -0.115489466591 0
0.400030002962 -0.110638719602 0
0.400953965521 -0.115427834051 0
0.400621150812 -0.115113306031 0
0.399813603508 -0.117586807636 0
0.400952931946 -0.115138672801 0
0.400937191193 -0.11057345458 0
0.401182451385 -0.115181883348 0
0.401521326857 -0.117038784779 0
0.400164245946 -0.118040627785 0
0.398885902411 -0.11492525977 0
0.399772722785 -0.114269517837 0
0.399465576499 -0.118830722214 0
0.399090896505 -0.116918757251 0
0.398935841906 -0.114698093142 0
0.399636880888 -0.112138384796 0
0.399145348437 -0.114517203831 0
0.398826106781 -0.116240267806 0
0.399052969372 -0.110578699278 0
0.399085503083 -0.111461160196 0
0.39844610176 -0.118361347864 0
0.401551210925 -0.118365528856 0
0.401732614208 -0.118321461615 0
0.398265269269 -0.118318807801 0
0.400256049772 -0.108179129791 0
0.399999869289 -0.110366282204 0
0.400099385749 -0.115647116878 0
0.400276573716 -0.111680846864 0
0.401057232629 -0.117641433999 0
0.399298221584 -0.119011815663 0
0.401569486225 -0.117368080094 0
0.400342799771 -0.112005606477 0
0.400568697795 -0.114115265788 0
0.400856343132 -0.114113239197 0
0.398992155438 -0.116209544744 0