# vtk DataFile Version 2.0
Generated with Solid Solver
ASCII
DATASET UNSTRUCTURED_GRID
POINTS 999 float 
0.2 4.325 0.0
1.4 4.325 0.0
1.4 4.825 0.0
0.2 4.825 0.0
1.4 4.34523264049 0.0
1.4 4.36751203886 0.0
1.4 4.39204525371 0.0
1.4 4.4190602782 0.0
1.4 4.44880817466 0.0
1.4 4.48156541084 0.0
1.4 4.51763640748 0.0
1.4 4.5573564007 0.0
1.4 4.60109451608 0.0
1.4 4.64925723872 0.0
1.4 4.70229217343 0.0
1.4 4.76069218095 0.0
1.33333333333 4.825 0.0
1.26666666667 4.825 0.0
1.2 4.825 0.0
1.13333333333 4.825 0.0
1.06666666667 4.825 0.0
1.0 4.825 0.0
0.933333333334 4.825 0.0
0.866666666668 4.825 0.0
0.800000000001 4.825 0.0
0.733333333334 4.825 0.0
0.666666666668 4.825 0.0
0.600000000001 4.825 0.0
0.533333333334 4.825 0.0
0.466666666667 4.825 0.0
0.4 4.825 0.0
0.333333333334 4.825 0.0
0.266666666667 4.825 0.0
0.2 4.76069218095 0.0
0.2 4.70229217343 0.0
0.2 4.64925723872 0.0
0.2 4.60109451608 0.0
0.2 4.5573564007 0.0
0.2 4.51763640748 0.0
0.2 4.48156541084 0.0
0.2 4.44880817466 0.0
0.2 4.4190602782 0.0
0.2 4.39204525371 0.0
0.2 4.36751203886 0.0
0.2 4.34523264049 0.0
0.212131543907 4.30926329506 0.0
0.224675715302 4.29385348652 0.0
0.23762369102 4.27878141198 0.0
0.250966423879 4.26405760374 0.0
0.264694484585 4.24969246611 0.0
0.278798324214 4.23569599189 0.0
0.293267939266 4.22207810803 0.0
0.308093289028 4.20884826442 0.0
0.323263842145 4.19601585877 0.0
0.338769084145 4.18358978512 0.0
0.354597997314 4.17157887342 0.0
0.37073960121 4.15999145532 0.0
0.387182441982 4.14883575334 0.0
0.403915091795 4.13811952025 0.0
0.420925712897 4.12785033813 0.0
0.438202430937 4.11803537461 0.0
0.455733079095 4.10868154223 0.0
0.473505374364 4.09979539439 0.0
0.491506842655 4.09138316882 0.0
0.509724826085 4.0834507802 0.0
0.528146580414 4.07600377808 0.0
0.546759103951 4.06904741762 0.0
0.56554943677 4.06258654322 0.0
0.584504260001 4.05662573401 0.0
0.60361041518 4.0511691282 0.0
0.622854334779 4.04622060039 0.0
0.642222678753 4.04178358113 0.0
0.661701681839 4.03786122392 0.0
0.681277836375 4.03445624851 0.0
0.700937245817 4.03157107217 0.0
0.720666255912 4.02920769845 0.0
0.740450894784 4.02736780161 0.0
0.76027736978 4.02605266363 0.0
0.780131702711 4.02526321235 0.0
0.799999999998 4.025 0.0
0.819868297285 4.02526321235 0.0
0.839722630216 4.02605266363 0.0
0.859549105212 4.02736780161 0.0
0.879333744085 4.02920769845 0.0
0.89906275418 4.03157107217 0.0
0.918722163621 4.03445624851 0.0
0.938298318157 4.03786122392 0.0
0.957777321244 4.04178358113 0.0
0.977145665218 4.04622060039 0.0
0.996389584817 4.0511691282 0.0
1.01549574 4.05662573401 0.0
1.03445056323 4.06258654322 0.0
1.05324089605 4.06904741762 0.0
1.07185341958 4.07600377808 0.0
1.09027517391 4.0834507802 0.0
1.10849315734 4.09138316882 0.0
1.12649462563 4.09979539439 0.0
1.1442669209 4.10868154222 0.0
1.16179756906 4.1180353746 0.0
1.1790742871 4.12785033813 0.0
1.1960849082 4.13811952024 0.0
1.21281755802 4.14883575334 0.0
1.22926039879 4.15999145532 0.0
1.24540200269 4.17157887342 0.0
1.26123091585 4.18358978512 0.0
1.27673615785 4.19601585877 0.0
1.29190671097 4.20884826442 0.0
1.30673206073 4.22207810803 0.0
1.32120167579 4.23569599189 0.0
1.33530551541 4.24969246611 0.0
1.34903357612 4.26405760374 0.0
1.36237630898 4.27878141198 0.0
1.3753242847 4.29385348652 0.0
1.38786845609 4.30926329506 0.0
1.05632730172 4.46025283906 0.0
0.549964048968 4.4630053958 0.0
0.806135520676 4.31186690218 0.0
0.603895783049 4.26079310371 0.0
1.22984770884 4.38318704125 0.0
0.3703382852 4.38423552752 0.0
0.995322815839 4.25565031136 0.0
0.728315816804 4.1765935937 0.0
0.872128173905 4.17288724072 0.0
1.14059401893 4.27298468684 0.0
0.461553191009 4.27181671009 0.0
0.784706775856 4.56821390922 0.0
0.398287125272 4.57945970538 0.0
1.20625306554 4.58334743514 0.0
0.624100842742 4.1589824436 0.0
0.5257453845 4.18811776279 0.0
0.978502430793 4.15488737058 0.0
1.07419209812 4.18825154482 0.0
0.364313698077 4.28677035763 0.0
1.23509538257 4.28681716733 0.0
0.68124123937 4.39284548972 0.0
1.31679378691 4.35012066749 0.0
0.283206213094 4.35012066749 0.0
0.791498533126 4.11467141721 0.0
0.931481076052 4.3801344917 0.0
0.966719065571 4.62778042839 0.0
0.684451667517 4.11068036752 0.0
0.618335406951 4.62686910993 0.0
0.450982331762 4.19686171732 0.0
0.915674266355 4.10995633851 0.0
1.14900051594 4.19689012964 0.0
1.30193709687 4.4481448133 0.0
0.298574667609 4.44816296922 0.0
1.05734787542 4.34990107617 0.0
0.539273225177 4.35252599628 0.0
0.709896798149 4.27721026287 0.0
0.895708916005 4.26924194389 0.0
0.813273511364 4.43835766235 0.0
0.559289631452 4.13230879113 0.0
1.04001407307 4.13281539633 0.0
0.801161810585 4.23146244955 0.0
0.665113819616 4.52056650186 0.0
0.852577362173 4.09111846388 0.0
0.390256727869 4.2242806298 0.0
1.20974450479 4.22428104599 0.0
0.921542541183 4.52778058719 0.0
1.14030889032 4.36437344809 0.0
1.15600477272 4.46808538305 0.0
0.435243219029 4.4750581257 0.0
0.462045157798 4.36654654286 0.0
0.735806812738 4.08472269746 0.0
1.30082934537 4.29793772796 0.0
0.299170654625 4.29793772796 0.0
0.533651712118 4.26265983853 0.0
0.666130919144 4.21652131559 0.0
1.0676097303 4.26179469382 0.0
1.08054433577 4.58530946155 0.0
0.506773767255 4.56568295079 0.0
0.626745312844 4.10124420826 0.0
0.933845304214 4.2106954732 0.0
0.293717639664 4.55175000185 0.0
0.312505022079 4.66426411351 0.0
1.3058164124 4.55154930624 0.0
1.29054387065 4.66302765963 0.0
0.973467966326 4.09941619478 0.0
0.487935413164 4.15087084015 0.0
0.461549079751 4.68836834982 0.0
1.11203248746 4.15093503889 0.0
1.14453515393 4.70617370303 0.0
0.840217564202 4.68891146633 0.0
0.585347033288 4.20539048534 0.0
0.619177396637 4.34227576306 0.0
0.331644410315 4.24962190462 0.0
1.26835558968 4.24962190462 0.0
1.01536156978 4.19987473052 0.0
0.809331033562 4.07065709122 0.0
0.982321540791 4.33437358971 0.0
0.725600576914 4.66999651799 0.0
0.812291456186 4.16642942492 0.0
0.335887692543 4.33918235669 0.0
1.26344844681 4.34017131907 0.0
1.23449730504 4.49457441524 0.0
1.34334172095 4.40539551957 0.0
0.256658279045 4.40539551957 0.0
0.741646926828 4.34287908527 0.0
0.674799084703 4.16673768522 0.0
1.18647435526 4.30955189749 0.0
0.360563250283 4.49596479569 0.0
0.873716483853 4.33845499203 0.0
0.418704489949 4.31146264283 0.0
0.492670911224 4.22931614809 0.0
0.403480880356 4.19046776931 0.0
1.19651541215 4.1904686246 0.0
0.728649253738 4.46214546491 0.0
1.00883674467 4.40174664879 0.0
1.11035034557 4.23161841276 0.0
0.261968539765 4.3130079512 0.0
1.33803146023 4.3130079512 0.0
0.74649980488 4.1318354354 0.0
0.927597725248 4.1577597079 0.0
0.892956618256 4.07619338913 0.0
0.659794281787 4.07951387326 0.0
0.587663534405 4.09486537006 0.0
0.942353209926 4.07935300973 0.0
1.01493747319 4.09476013719 0.0
0.613130017774 4.41369803882 0.0
0.449373501074 4.15377191978 0.0
0.514840228377 4.12225850006 0.0
0.497057592 4.41333092106 0.0
1.15061382426 4.15379293084 0.0
1.08514419473 4.12228328152 0.0
0.745617635771 4.23098957592 0.0
0.87523452213 4.59853036549 0.0
0.855262884783 4.2258970831 0.0
1.01126200032 4.53280064162 0.0
1.09391916408 4.40632408872 0.0
1.04436265455 4.71482000827 0.0
0.314320181089 4.38773968607 0.0
1.28649331902 4.38743720145 0.0
0.771211579291 4.06316862024 0.0
0.432259099658 4.24006002157 0.0
0.698583889427 4.07144353526 0.0
1.16802128371 4.238862881 0.0
1.09587629216 4.3086676659 0.0
1.35920470355 4.35666960471 0.0
0.240795296449 4.35666960471 0.0
0.504003580654 4.30815758118 0.0
0.579942709371 4.5342075073 0.0
0.875915224914 4.12815792528 0.0
0.426503136644 4.40717733008 0.0
0.57541416445 4.30365301522 0.0
0.683877978289 4.33161848113 0.0
0.888061695889 4.44633509246 0.0
0.26012287522 4.49859249103 0.0
1.33987712478 4.49859249103 0.0
0.801393572636 4.37060096582 0.0
0.558460082533 4.72496728209 0.0
1.1741923373 4.41132830101 0.0
0.83220012886 4.12779415912 0.0
1.02815069622 4.30053276509 0.0
0.948308583502 4.2880204454 0.0
0.846588933095 4.50834596945 0.0
0.343666800815 4.43485820652 0.0
1.25632767671 4.43480360053 0.0
0.97849585731 4.47031535602 0.0
1.10170977548 4.51507265998 0.0
0.662193131828 4.26809398492 0.0
0.400503668388 4.26881657105 0.0
1.20117145985 4.26130427377 0.0
0.350957892513 4.21796558019 0.0
1.24904210749 4.21796558019 0.0
0.771964652188 4.18905379403 0.0
0.932165148285 4.72736281402 0.0
0.373672364094 4.73321357765 0.0
0.760245937722 4.28409350779 0.0
0.848718469252 4.05767763075 0.0
1.23385612561 4.7358294747 0.0
0.846421485813 4.28065918421 0.0
0.651597058631 4.13043284014 0.0
0.650489852552 4.72138045504 0.0
0.58457834847 4.16375088261 0.0
0.48701309933 4.18859927013 0.0
0.708495738406 4.58856947756 0.0
1.11203398596 4.18878062515 0.0
0.54865558244 4.10250047869 0.0
1.05126102377 4.10234629471 0.0
0.300013757486 4.26259646442 0.0
1.29998624251 4.26259646442 0.0
0.9465032388 4.12718070354 0.0
0.708587583337 4.14146095907 0.0
0.973348904468 4.19537871864 0.0
0.628721855632 4.19538356945 0.0
0.380175010018 4.34021880077 0.0
0.662092932411 4.45899041267 0.0
1.05133526787 4.22221992007 0.0
0.528087045766 4.64327882187 0.0
1.22233124543 4.33521693908 0.0
1.19001193434 4.36273586668 0.0
0.853024099244 4.39544003492 0.0
0.542800296246 4.22324366905 0.0
0.247706318737 4.45239119247 0.0
1.35229368126 4.45239119247 0.0
0.599153768578 4.12953797005 0.0
1.01616570494 4.16227683178 0.0
0.744705786938 4.40569544575 0.0
1.31929001115 4.73702550052 0.0
0.777615355331 4.15113602511 0.0
1.33132411895 4.60631378639 0.0
0.265621610877 4.60975488866 0.0
0.532023338888 4.15374454388 0.0
1.0697792195 4.15241429251 0.0
0.286371037106 4.73010312914 0.0
0.497725885905 4.50153668256 0.0
0.46053455822 4.31587947599 0.0
0.433799237968 4.54629400991 0.0
0.388624781906 4.65094200004 0.0
0.554823673752 4.40451940232 0.0
1.1421595646 4.31818301431 0.0
1.14760043966 4.61655103139 0.0
1.21258698805 4.65320200685 0.0
1.16279096046 4.53292621409 0.0
0.995762647814 4.12508772517 0.0
0.456229040627 4.61456685246 0.0
0.707289391156 4.21520271873 0.0
0.763036833302 4.74285445535 0.0
0.78386198569 4.49787013126 0.0
[...]
POINT_DATA 999
VECTORS Displacement float
0.0371564334109 -0.196153061561 0
0.042602990569 -0.196262019922 0
0.04 -0.2 0
0.04 -0.2 0
0.0428443563175 -0.196245504978 0
0.0430771588823 -0.196223816336 0
0.0432869673019 -0.196198666281 0
0.0434669553662 -0.1961900364 0
0.0435806185506 -0.196207583044 0
0.0436570068894 -0.196261711881 0
0.0436366604393 -0.196360980459 0
0.0435124443777 -0.196514795492 0
0.0432686863779 -0.196764419635 0
0.0428539434381 -0.197134220804 0
0.0422463995707 -0.19769003143 0
0.0413630374593 -0.198531792986 0
0.04 -0.2 0
0.04 -0.2 0
0.04 -0.2 0
0.04 -0.2 0
0.04 -0.2 0
0.04 -0.2 0
0.04 -0.2 0
0.04 -0.2 0
0.04 -0.2 0
0.04 -0.2 0
0.04 -0.2 0
0.04 -0.2 0
0.04 -0.2 0
0.04 -0.2 0
0.04 -0.2 0
0.04 -0.2 0
0.04 -0.2 0
0.0386171562356 -0.198507439395 0
0.0377094870379 -0.197644423962 0
0.0370506199201 -0.197071161699 0
0.0366279883706 -0.196685237474 0
0.0363665011239 -0.19642565924 0
0.0362210727493 -0.196265327082 0
0.036182385938 -0.196162874273 0
0.0362424953107 -0.196105853287 0
0.0363412802305 -0.196085927107 0
0.0365074437512 -0.196092581317 0
0.0367044393195 -0.196116283732 0
0.0369255392154 -0.196137024355 0
0.0373475346671 -0.196027821589 0
0.0375582096075 -0.195887233974 0
0.0377860837862 -0.19572291714 0
0.0380357972715 -0.195535382442 0
0.0383061773821 -0.195316540209 0
0.0385891879612 -0.195061136276 0
0.0388892475412 -0.194772010275 0
0.0392187532351 -0.194445504744 0
0.039574433724 -0.194052308556 0
0.0399373598039 -0.193623903837 0
0.040326915498 -0.193126743038 0
0.0407642398268 -0.192550189421 0
0.0412237498438 -0.191852113554 0
0.0417510021474 -0.190960559224 0
0.0422589763651 -0.189872136605 0
0.0426810940797 -0.188773019002 0
0.0429969501868 -0.187710707991 0
0.0432306272403 -0.186654167033 0
0.0433893869519 -0.185657748282 0
0.043483229103 -0.184691817853 0
0.043521809653 -0.183780058602 0
0.0434976238454 -0.182897228769 0
0.0434277764868 -0.182070868374 0
0.0433020981444 -0.181273475848 0
0.0431173238387 -0.180604921016 0
0.0428930159339 -0.179980017109 0
0.0426447002646 -0.179421115595 0
0.0423620433914 -0.178924180169 0
0.0420633245414 -0.178488367503 0
0.0417322704703 -0.178107606265 0
0.0413851163446 -0.177798995437 0
0.0410134803212 -0.177548577973 0
0.0406349426313 -0.177362195788 0
0.0402419381841 -0.177237799503 0
0.0398080258254 -0.177127414497 0
0.0393838880034 -0.177161059985 0
0.0389794109399 -0.177328684052 0
0.0386005801351 -0.177525145115 0
0.0382369992338 -0.177779873466 0
0.0378904132182 -0.178094633273 0
0.0375599129515 -0.178472756424 0
0.037251543902 -0.178917042585 0
0.0369808247835 -0.179414612782 0
0.0367375680258 -0.179980127126 0
0.0365206675453 -0.180612163522 0
0.0363511412108 -0.181300018042 0
0.0362199218785 -0.182050281653 0
0.0361362924595 -0.182842750767 0
0.0360961250251 -0.183703533449 0
0.0361397985774 -0.184641659338 0
0.036235287631 -0.185614499134 0
0.0363947810047 -0.18661181006 0
0.0366255141649 -0.187662497838 0
0.0369391037964 -0.188725161089 0
0.0373475454578 -0.189808045016 0
0.037866243208 -0.190929178842 0
0.0384025114923 -0.191837425346 0
0.0388800064323 -0.192563268707 0
0.039331387594 -0.193155726176 0
0.0397328102738 -0.193664791336 0
0.0401064921906 -0.194102987338 0
0.0404724840179 -0.194505023334 0
0.0408115678278 -0.194839046197 0
0.0411206349805 -0.195135088154 0
0.0414123840143 -0.195396935063 0
0.0416912149303 -0.195621744198 0
0.0419491459941 -0.19581502362 0
0.0421850956506 -0.195984956304 0
0.0424037963409 -0.196131097711 0
0.042303312251 -0.192482925274 0
0.037575677758 -0.192468444646 0
0.0399138266389 -0.185937414984 0
0.0388725029589 -0.186247584663 0
0.0430462675559 -0.193986450507 0
0.0367423022095 -0.193961615886 0
0.0407793438526 -0.186065781188 0
0.0399460233675 -0.181875328161 0
0.0397011525544 -0.18176074944 0
0.041692136271 -0.190304713211 0
0.0380527960959 -0.190228838221 0
0.039805433264 -0.193782705619 0
0.0371130828328 -0.19628524851 0
0.0427696503089 -0.196397380063 0
0.0403998967303 -0.182899624565 0
0.0398565612487 -0.186369684761 0
0.039175730207 -0.182836125278 0
0.0398156192304 -0.186339179498 0
0.0376607480649 -0.193226100496 0
0.0420770480157 -0.193238512143 0
0.0387541511615 -0.189070401383 0
0.0428958764141 -0.195216059224 0
0.036878070398 -0.195147648555 0
0.0398929192589 -0.179683871264 0
0.0411177388485 -0.188801119328 0
0.0411913572952 -0.195764171222 0
0.0408378267492 -0.180444219926 0
0.0386086987487 -0.195809327597 0
0.0395197307314 -0.189337818255 0
0.0388020372085 -0.180413579991 0
0.0401522156025 -0.189309871429 0
0.043465679033 -0.195570215894 0
0.0363614152072 -0.195508632582 0
0.0420081382461 -0.189861178612 0
0.0377161486175 -0.189999157864 0
0.0393287200371 -0.185210801417 0
0.0403779449701 -0.18500585764 0
0.0400386839465 -0.189966185172 0
0.0412843219262 -0.183907144294 0
0.0383756649731 -0.183865485477 0
0.0398524627322 -0.183321286761 0
0.0386360193315 -0.192853310487 0
0.0392378415558 -0.179178294051 0
0.0388016113473 -0.192023486638 0
0.0408958146826 -0.192031815577 0
0.0410864084291 -0.192968296457 0
0.0425990169224 -0.191919446457 0
0.0429401608509 -0.194021784516 0
0.0368459091376 -0.194241613118 0
0.0371788370455 -0.191900182859 0
0.0405851693651 -0.179108450361 0
0.0422496189997 -0.19478746919 0
0.0374960903108 -0.19472533824 0
0.0384936971921 -0.187946661772 0
0.039583225763 -0.183837289197 0
0.0412103141702 -0.187937958138 0
0.0421252395709 -0.195492791728 0
0.0375849389973 -0.195184291605 0
0.0415549922929 -0.181261978118 0
0.0400449826695 -0.183648826557 0
0.0365571750513 -0.196460339582 0
0.0376043165326 -0.197783629366 0
0.0433237938093 -0.196509403699 0
0.0423591157099 -0.197798051022 0
0.0380553957655 -0.181217627432 0
0.0409786561555 -0.186935557467 0
0.0383236506617 -0.197767770048 0
0.0386672067455 -0.18689722965 0
0.0414695490084 -0.198108123265 0
0.0402090878669 -0.196954779429 0
0.0395748416733 -0.185100493272 0
0.0383621759996 -0.188317147199 0
0.0382992207442 -0.193892716388 0
0.0414181117237 -0.193938116288 0
0.040003775124 -0.184946220896 0
0.0396845057104 -0.178396837687 0
0.041357956927 -0.188108363105 0
0.0394825646122 -0.196532379765 0
0.0398021529 -0.181268142283 0
0.0370102418432 -0.194210538304 0
0.0427662077147 -0.194248819688 0
0.043268623459 -0.195374785374 0
0.0433540498124 -0.195736998492 0
0.0364485117442 -0.195659294613 0
0.0393786011143 -0.187087681603 0
0.0401488008688 -0.182204926613 0
0.0423101207257 -0.192170210125 0
0.03655783864 -0.195405029617 0
0.0404950752923 -0.187031305664 0
0.0374314934849 -0.19205233429 0
0.038866676627 -0.188405600692 0
0.0396724763427 -0.191274940444 0
0.039998541214 -0.191263041145 0
0.0391943308337 -0.190846591902 0
0.041851708671 -0.190362329301 0
0.0408794472305 -0.188532521249 0
0.0372956159644 -0.195376397609 0
0.042457867801 -0.195455893472 0
0.040162598205 -0.1803808964 0
0.0393989014158 -0.181963899686 0
0.0385989377475 -0.179168295433 0
0.0416146838977 -0.180006750834 0
0.0421222584805 -0.182102203363 0
0.0379994987283 -0.180038679324 0
0.0374839712845 -0.182171980762 0
0.0381085089805 -0.190403847384 0
0.0409383484687 -0.188709185144 0
0.0418970765272 -0.185252177236 0
0.0372169240615 -0.192147428921 0
0.0386989105968 -0.188666670426 0
0.0377405959977 -0.185208982292 0
0.0396878402747 -0.183468491547 0
0.0405779374037 -0.19469689897 0
0.0399915430002 -0.183306282079 0
0.0418343179329 -0.193745680398 0
0.0425038724439 -0.191843952723 0
0.0410754231846 -0.197963850985 0
0.0366133116365 -0.194892254579 0
0.0431802998815 -0.194955647324 0
0.0402349833568 -0.178268220496 0
0.0385014907959 -0.190691215871 0
0.0412188025904 -0.179166192047 0
0.041177893987 -0.190675050504 0
0.0419236237996 -0.189771749901 0
0.0429753999177 -0.195790629965 0
0.0368011714651 -0.195702810949 0
0.0378209964113 -0.18977518649 0
0.0379682254903 -0.193857176616 0
0.0393225682337 -0.180444696801 0
0.0368455541332 -0.193271162756 0
0.0382927632578 -0.188016574505 0
0.0389275126054 -0.187174576373 0
0.0407924643698 -0.190447963806 0
0.0362858625475 -0.196115972961 0
0.0435622606738 -0.196185943633 0
0.0398979155889 -0.187829733871 0
0.0389782855821 -0.198146852869 0
0.0429675139364 -0.193367653111 0
0.0396106487079 -0.180129947874 0
0.0414369529608 -0.187992170166 0
0.04080950743 -0.186223212469 0
0.0403858405846 -0.192120323807 0
0.0364914410775 -0.194891987781 0
0.0433274127715 -0.194932194909 0
0.0416500439843 -0.191841999244 0
0.0425357708978 -0.194234981464 0
0.0391145360432 -0.185474706479 0
0.0379573454041 -0.192062790368 0
0.0416393713456 -0.192053811057 0
0.0389771435108 -0.193288451271 0
0.0407192855764 -0.193321050165 0
0.0398504526315 -0.182014114535 0
0.0405573057563 -0.197975569019 0
0.0386508068104 -0.198708333306 0
0.039615730631 -0.185113373665 0
0.0390578233573 -0.178222414551 0
0.0412890297048 -0.198766135753 0
0.0401395209724 -0.185025998619 0
0.0407797475189 -0.181542340763 0
0.0392968474013 -0.197876837323 0
0.0403971394575 -0.183984419559 0
0.0397981654449 -0.187758251765 0
0.0391688191069 -0.194484935919 0
0.0398700520273 -0.187689491515 0
0.042300793438 -0.183555070239 0
0.0373236690863 -0.183507021721 0
0.0380647235091 -0.194647492463 0
0.0416610200747 -0.19470996723 0
0.0388286856508 -0.18141365524 0
0.040305829704 -0.181015948853 0
0.0398863069273 -0.183878747735 0
0.0397942243248 -0.18385173485 0
0.0370698029234 -0.1933102892 0
0.0385454598704 -0.191168021321 0
0.0405019414647 -0.186490828791 0
0.0381916704641 -0.196622345617 0
0.0426564889074 -0.19334051709 0
0.0427957574203 -0.192956932856 0
0.0404050484686 -0.188725866175 0
0.0391510937719 -0.186711551151 0
0.0362674092781 -0.195915984188 0
0.0435587022297 -0.195994288317 0
0.0411234581773 -0.182686393665 0
0.0392265034612 -0.183939119983 0
0.039352042432 -0.189055907426 0
0.0414227160978 -0.19875525617 0
0.0399216469384 -0.180813640347 0
0.0430467800257 -0.197083346691 0
0.0368770068827 -0.197067420278 0
0.0407748774824 -0.185328558889 0
0.0388292916251 -0.185324860541 0
0.0384631642317 -0.198654864658 0
0.0372740666706 -0.193958082979 0
0.0375379409558 -0.191032614558 0
0.0370741305581 -0.195469622176 0
0.0376959071821 -0.197439484227 0
0.0376443756929 -0.190993371996 0
0.0422462994022 -0.191141871292 0
0.0422825088434 -0.196565487069 0
0.0422157650076 -0.197494106609 0
0.0428388919457 -0.195221440537 0
0.0384516757962 -0.182420809371 0
0.0376336188986 -0.19649487019 0
0.0396790351012 -0.183278649828 0
0.0398345771196 -0.198229621783 0
0.0397609168918 -0.191770520821 0
0.040899868175 -0.187317676008 0
0.040624907498 -0.190265921923 0
0.0399741574132 -0.183120099438 0
0.0390183800912 -0.190231131947 0
0.0434382006301 -0.195871659734 0
0.0408246287076 -0.178470950833 0
0.0376991704435 -0.194069398956 0
0.042038798532 -0.19411677914 0
0.0395792230567 -0.192502019571 0
0.040098908444 -0.19251601102 0
0.0380652826343 -0.192141005254 0
0.0369426038529 -0.192998625908 0
0.0401811223872 -0.179161203128 0
0.0391167177951 -0.193038981116 0
0.0382243926752 -0.1929969891 0
0.0414943556306 -0.193020887801 0
0.0364204619159 -0.195776666476 0
0.0431872547004 -0.19448892832 0
0.0404762059608 -0.185028703578 0
0.0377049396508 -0.195187654628 0
0.0420330574421 -0.19526323602 0
0.0415858824629 -0.197065041309 0
0.0366527954809 -0.194451846721 0
0.0370702860247 -0.195742809596 0
0.0426929131473 -0.195834129646 0
0.0421531937313 -0.180797617486 0
0.0398537209966 -0.182335628479 0
0.0428601952181 -0.19695820267 0
0.0370340149853 -0.196922428448 0
0.0383014201175 -0.189020944278 0
0.0406154988421 -0.17997767174 0
0.039870580096 -0.184330724586 0
0.0396002033998 -0.179244556178 0
0.042320529348 -0.190864718378 0
0.0414333192657 -0.189060877327 0
0.0386899245439 -0.186913887221 0
0.0380986501714 -0.179137345318 0
0.037529983787 -0.180835416785 0
0.0426792523547 -0.19332059151 0
0.0370545965022 -0.194751801481 0
0.0427110869256 -0.194809623304 0
0.0412132555598 -0.194271834945 0
0.0374370264188 -0.190893410002 0
0.0388184659608 -0.186655691942 0
0.0394659387002 -0.184998299363 0
0.0385439266267 -0.194241943526 0
0.0398255972282 -0.19588212237 0
0.0417965199823 -0.187008613307 0
0.037837545462 -0.186967068236 0
0.0387225211747 -0.189548479391 0
0.0408871343567 -0.189489125877 0
0.0363970198932 -0.196440692581 0
0.0434758943506 -0.19650672137 0
0.0392083772357 -0.185211393127 0
0.0409285306886 -0.186793691409 0
0.0400384400193 -0.185290329601 0
0.0416621745756 -0.195450934395 0
0.0386784084497 -0.178479627471 0
0.0412787259103 -0.190511940801 0
0.0432149582806 -0.195928957017 0
0.0365753807459 -0.195837886181 0
0.0392633967849 -0.19057097709 0
0.0390057357222 -0.179716475541 0
0.04041689487 -0.190553412464 0
0.0394158003388 -0.184357178621 0
0.0406711233239 -0.196375638294 0
0.0408423489849 -0.198860791754 0
0.0421829904832 -0.190963857278 0
0.0379628550064 -0.189530569883 0
0.0432058943257 -0.195345809545 0
0.0365873776542 -0.195279862073 0
0.0431388548946 -0.196170679219 0
0.0367245997144 -0.196099220429 0
0.0392504111395 -0.181078906215 0
0.0419386989726 -0.191374812427 0
0.0417324252662 -0.179202046277 0
0.0399078566355 -0.177815039532 0
0.0396805535401 -0.181094007442 0
0.036966483699 -0.193232493586 0
0.0378016387991 -0.191525144317 0
0.0388130102637 -0.193947276354 0
0.0408890526448 -0.193994672117 0
0.0401752644711 -0.187213651211 0
0.0402166496122 -0.184081985348 0
0.0393852934379 -0.177979083254 0
0.042374397306 -0.197854860904 0
0.0372720135689 -0.193861267875 0
0.0424659119898 -0.193902064892 0
0.0416577728779 -0.189061513984 0
0.0373723910811 -0.197621198035 0
0.0391815131669 -0.198928936109 0
0.0427547704422 -0.192517150398 0
0.0380669103596 -0.195591829103 0
0.0401220384238 -0.18285238728 0
0.0414648652054 -0.189086950395 0
0.041612263141 -0.188679633164 0
0.0402760159389 -0.184930764236 0
0.0411292821447 -0.18704891382 0
0.0384158127493 -0.189154575607 0
0.0368009264319 -0.195180511604 0
0.0412436249091 -0.18080499139 0
0.0409899536971 -0.182146716404 0
0.0368202875553 -0.194737995438 0
0.0429573927878 -0.194807710034 0
0.0384947383659 -0.19442703668 0
0.0412171961709 -0.194485226078 0
0.0396919541259 -0.18223253191 0
0.0421795214977 -0.192662258424 0
0.0422316685749 -0.193694643277 0
0.0395644691838 -0.182868625842 0
0.0380936925741 -0.188752124218 0
0.0393930286695 -0.185826621463 0
0.0373401895437 -0.192883994396 0
0.0370203534485 -0.195462479021 0
0.04274538259 -0.195543016894 0
0.0402318684354 -0.198421772221 0
0.040420217616 -0.186388858451 0
0.0403829617406 -0.188000604205 0
0.0370502007199 -0.192488489083 0
0.0403907439621 -0.185777210959 0
0.0383649295417 -0.180775795539 0
0.0372470077421 -0.192929261165 0
0.0404625872849 -0.187204734917 0
0.0408734243093 -0.199067727604 0
0.0426872736406 -0.182676538388 0
0.0392787679053 -0.187971501641 0
0.0391278673873 -0.19619136766 0
0.0399978195929 -0.181091448237 0
0.0393249582855 -0.186477343278 0
0.0397283957583 -0.184095949111 0
0.0426430870587 -0.184285676696 0
0.0369000997738 -0.182647899896 0
0.0392685028684 -0.187219946942 0
0.0369864236558 -0.184230186823 0
0.0398124247861 -0.180438910345 0
0.0399928276243 -0.184031049359 0
0.0399792172427 -0.178719341063 0
0.0434724675288 -0.195983609977 0
0.0363392325822 -0.195897104575 0
0.0425997263477 -0.18118558168 0
0.0422516871773 -0.180070047249 0
0.0397058763985 -0.198789110348 0
0.037403474728 -0.180063522668 0
0.0370502434349 -0.18122846483 0
0.0424608243448 -0.186129277351 0
0.0419591711765 -0.18797061396 0
0.0399134229176 -0.182437606771 0
0.0371706238606 -0.186087341293 0
0.0376675052425 -0.18792610964 0
0.0431103656435 -0.194853902857 0
0.0414065573032 -0.196607465442 0
0.0397022946096 -0.186923436068 0
0.0406415757478 -0.177963880965 0
0.0384816837409 -0.17971441852 0
0.0412546185224 -0.178414955969 0
0.0405052055383 -0.181280745155 0
0.042860595129 -0.193870327162 0
0.0432012205221 -0.19564938089 0
0.0365892294074 -0.195570835535 0
0.0376053263802 -0.19362092852 0
0.0433600952438 -0.195332148397 0
0.0364483554718 -0.19527334292 0
0.0402850803195 -0.193607567518 0
0.0391757760731 -0.18563808053 0
0.0405092675582 -0.198767927434 0
0.039366644252 -0.178724087223 0
0.0406858178087 -0.188410412411 0
0.0403408926402 -0.191762201317 0
0.0393140013955 -0.191753833398 0
0.0367550399289 -0.194370253148 0
0.0406651154658 -0.186154221557 0
0.0381701054879 -0.182986666824 0
0.0400520789095 -0.183829280445 0
0.0424829778605 -0.195641923917 0
0.0398028159778 -0.182536157042 0
0.0390556428919 -0.186072141233 0
0.0412276992973 -0.179830487727 0
0.0398428803455 -0.182173872054 0
0.036670167071 -0.194045839406 0
0.0389798872377 -0.189782473701 0
0.0394182542602 -0.180026591126 0
0.0395894445552 -0.190240025345 0
0.0390182933838 -0.187914951509 0
0.0417082825946 -0.18434452419 0
0.0399446044958 -0.19015624688 0
0.0397163140271 -0.190127871697 0
0.0379313548447 -0.184304415139 0
0.0401543458368 -0.186105285116 0
0.0403168274385 -0.179640212976 0
0.0417889701405 -0.183135203361 0
0.0434179804095 -0.195421208691 0
0.036420094214 -0.195348596424 0
0.0391873399103 -0.199138966293 0
0.0395605151184 -0.183814007564 0
0.0431334092819 -0.194049943457 0
0.0400755565252 -0.179797411411 0
0.0382257749642 -0.178624729508 0
0.0371209039321 -0.195115715789 0
0.0426401119924 -0.195185779011 0
0.037492628376 -0.195608755257 0
0.0422530752021 -0.19569667314 0
0.0389834117897 -0.179137085161 0
0.0371578265444 -0.192300077532 0
0.0415377594678 -0.182013899614 0
0.0430572456713 -0.195803919752 0
0.0405197420605 -0.185927516346 0
0.0385680332943 -0.181726432645 0
0.0430294569866 -0.194416113176 0
0.0369297072473 -0.195895476865 0
0.0428401866392 -0.195992570901 0
0.0406771232066 -0.193197287127 0
0.0419390737128 -0.191574529249 0
0.0411522133312 -0.185867078889 0
0.0373488766783 -0.19434115804 0
0.0424024695405 -0.194391896809 0
0.0383922388197 -0.1916040816 0
0.0397960862061 -0.182901789624 0
0.0412736089056 -0.191630839595 0
0.0405256152757 -0.185220505855 0
0.0404899342825 -0.178579046272 0
0.037449141994 -0.191096860931 0
0.0385009181812 -0.185857455984 0
0.0391732368205 -0.191392329587 0
0.0405120944051 -0.191386359701 0
0.0415427990136 -0.193108633765 0
0.0384438454942 -0.189386138243 0
0.0391171414828 -0.199241873248 0
0.0380896118101 -0.195026375846 0
0.0416354347234 -0.195098684377 0
0.0407904119336 -0.17941497268 0
0.0412635775292 -0.189562210612 0
0.0383641596579 -0.189515332465 0
0.0395428670394 -0.184522999966 0
0.0398764592514 -0.182966859544 0
0.0393501459698 -0.198591167982 0
0.0392597824128 -0.18873185862 0
0.0388569046739 -0.191741063148 0
0.0425502708168 -0.192090062112 0
0.0404093295445 -0.19084983304 0
0.0404235972782 -0.18876120226 0
0.0401710994375 -0.18439613251 0
0.0434704853574 -0.195727349211 0
0.0363464581559 -0.195657729303 0
0.0387351970183 -0.187896213247 0
0.037948894739 -0.193568909079 0
0.0417765938625 -0.193595177183 0
0.0418716371527 -0.190044150613 0
0.0385141369105 -0.193386071999 0
0.0411776873295 -0.193404928989 0
0.0362310405454 -0.196069706947 0
0.0436073839872 -0.196149904351 0
0.0386180144927 -0.187003667706 0
0.0409313147185 -0.197220135198 0
0.0428955975246 -0.193323319761 0
0.0407852680861 -0.191856263812 0
0.0412836694567 -0.189451665712 0
0.0398754888096 -0.182560651396 0
0.0395479165334 -0.185695139682 0
0.0376718826593 -0.179381290465 0
0.0419664898636 -0.192709590335 0
0.0432105553292 -0.194545733347 0
0.0365913061144 -0.194509930547 0
0.037614241253 -0.192256313341 0
0.0378647856927 -0.190042286707 0
0.0402034552988 -0.18432822344 0
0.0385353494478 -0.190189900807 0
0.0395043569005 -0.181380981017 0
0.0414883230411 -0.189938019348 0
0.0409056088149 -0.189508532228 0
0.0395961435165 -0.194737589197 0
0.0409947555591 -0.188010445998 0
0.04175766538 -0.180572523837 0
0.0417291279033 -0.1889696964 0
0.0428026616027 -0.192725503805 0
0.0402714630838 -0.19570900033 0
0.0381767213892 -0.18856427774 0
0.0395457896827 -0.187992267911 0
0.0389103193916 -0.197363262126 0
0.0382322780755 -0.193140855276 0
0.0384541777485 -0.187678797811 0
0.0395529464864 -0.1839727974 0
0.0386002945958 -0.188136462553 0
0.0377985375396 -0.19150770495 0