# vtk DataFile Version 2.0
Generated with Solid Solver
ASCII
DATASET UNSTRUCTURED_GRID
POINTS 999 float 
0.2 4.325 0.0
1.4 4.325 0.0
1.4 4.825 0.0
0.2 4.825 0.0
1.4 4.34523264049 0.0
1.4 4.36751203886 0.0
1.4 4.39204525371 0.0
1.4 4.4190602782 0.0
1.4 4.44880817466 0.0
1.4 4.48156541084 0.0
1.4 4.51763640748 0.0
1.4 4.5573564007 0.0
1.4 4.60109451608 0.0
1.4 4.64925723872 0.0
1.4 4.70229217343 0.0
1.4 4.76069218095 0.0
1.33333333333 4.825 0.0
1.26666666667 4.825 0.0
1.2 4.825 0.0
1.13333333333 4.825 0.0
1.06666666667 4.825 0.0
1.0 4.825 0.0
0.933333333334 4.825 0.0
0.866666666668 4.825 0.0
0.800000000001 4.825 0.0
0.733333333334 4.825 0.0
0.666666666668 4.825 0.0
0.600000000001 4.825 0.0
0.533333333334 4.825 0.0
0.466666666667 4.825 0.0
0.4 4.825 0.0
0.333333333334 4.825 0.0
0.266666666667 4.825 0.0
0.2 4.76069218095 0.0
0.2 4.70229217343 0.0
0.2 4.64925723872 0.0
0.2 4.60109451608 0.0
0.2 4.5573564007 0.0
0.2 4.51763640748 0.0
0.2 4.48156541084 0.0
0.2 4.44880817466 0.0
0.2 4.4190602782 0.0
0.2 4.39204525371 0.0
0.2 4.36751203886 0.0
0.2 4.34523264049 0.0
0.212131543907 4.30926329506 0.0
0.224675715302 4.29385348652 0.0
0.23762369102 4.27878141198 0.0
0.250966423879 4.26405760374 0.0
0.264694484585 4.24969246611 0.0
0.278798324214 4.23569599189 0.0
0.293267939266 4.22207810803 0.0
0.308093289028 4.20884826442 0.0
0.323263842145 4.19601585877 0.0
0.338769084145 4.18358978512 0.0
0.354597997314 4.17157887342 0.0
0.37073960121 4.15999145532 0.0
0.387182441982 4.14883575334 0.0
0.403915091795 4.13811952025 0.0
0.420925712897 4.12785033813 0.0
0.438202430937 4.11803537461 0.0
0.455733079095 4.10868154223 0.0
0.473505374364 4.09979539439 0.0
0.491506842655 4.09138316882 0.0
0.509724826085 4.0834507802 0.0
0.528146580414 4.07600377808 0.0
0.546759103951 4.06904741762 0.0
0.56554943677 4.06258654322 0.0
0.584504260001 4.05662573401 0.0
0.60361041518 4.0511691282 0.0
0.622854334779 4.04622060039 0.0
0.642222678753 4.04178358113 0.0
0.661701681839 4.03786122392 0.0
0.681277836375 4.03445624851 0.0
0.700937245817 4.03157107217 0.0
0.720666255912 4.02920769845 0.0
0.740450894784 4.02736780161 0.0
0.76027736978 4.02605266363 0.0
0.780131702711 4.02526321235 0.0
0.799999999998 4.025 0.0
0.819868297285 4.02526321235 0.0
0.839722630216 4.02605266363 0.0
0.859549105212 4.02736780161 0.0
0.879333744085 4.02920769845 0.0
0.89906275418 4.03157107217 0.0
0.918722163621 4.03445624851 0.0
0.938298318157 4.03786122392 0.0
0.957777321244 4.04178358113 0.0
0.977145665218 4.04622060039 0.0
0.996389584817 4.0511691282 0.0
1.01549574 4.05662573401 0.0
1.03445056323 4.06258654322 0.0
1.05324089605 4.06904741762 0.0
1.07185341958 4.07600377808 0.0
1.09027517391 4.0834507802 0.0
1.10849315734 4.09138316882 0.0
1.12649462563 4.09979539439 0.0
1.1442669209 4.10868154222 0.0
1.16179756906 4.1180353746 0.0
1.1790742871 4.12785033813 0.0
1.1960849082 4.13811952024 0.0
1.21281755802 4.14883575334 0.0
1.22926039879 4.15999145532 0.0
1.24540200269 4.17157887342 0.0
1.26123091585 4.18358978512 0.0
1.27673615785 4.19601585877 0.0
1.29190671097 4.20884826442 0.0
1.30673206073 4.22207810803 0.0
1.32120167579 4.23569599189 0.0
1.33530551541 4.24969246611 0.0
1.34903357612 4.26405760374 0.0
1.36237630898 4.27878141198 0.0
1.3753242847 4.29385348652 0.0
1.38786845609 4.30926329506 0.0
1.05632730172 4.46025283906 0.0
0.549964048968 4.4630053958 0.0
0.806135520676 4.31186690218 0.0
0.603895783049 4.26079310371 0.0
1.22984770884 4.38318704125 0.0
0.3703382852 4.38423552752 0.0
0.995322815839 4.25565031136 0.0
0.728315816804 4.1765935937 0.0
0.872128173905 4.17288724072 0.0
1.14059401893 4.27298468684 0.0
0.461553191009 4.27181671009 0.0
0.784706775856 4.56821390922 0.0
0.398287125272 4.57945970538 0.0
1.20625306554 4.58334743514 0.0
0.624100842742 4.1589824436 0.0
0.5257453845 4.18811776279 0.0
0.978502430793 4.15488737058 0.0
1.07419209812 4.18825154482 0.0
0.364313698077 4.28677035763 0.0
1.23509538257 4.28681716733 0.0
0.68124123937 4.39284548972 0.0
1.31679378691 4.35012066749 0.0
0.283206213094 4.35012066749 0.0
0.791498533126 4.11467141721 0.0
0.931481076052 4.3801344917 0.0
0.966719065571 4.62778042839 0.0
0.684451667517 4.11068036752 0.0
0.618335406951 4.62686910993 0.0
0.450982331762 4.19686171732 0.0
0.915674266355 4.10995633851 0.0
1.14900051594 4.19689012964 0.0
1.30193709687 4.4481448133 0.0
0.298574667609 4.44816296922 0.0
1.05734787542 4.34990107617 0.0
0.539273225177 4.35252599628 0.0
0.709896798149 4.27721026287 0.0
0.895708916005 4.26924194389 0.0
0.813273511364 4.43835766235 0.0
0.559289631452 4.13230879113 0.0
1.04001407307 4.13281539633 0.0
0.801161810585 4.23146244955 0.0
0.665113819616 4.52056650186 0.0
0.852577362173 4.09111846388 0.0
0.390256727869 4.2242806298 0.0
1.20974450479 4.22428104599 0.0
0.921542541183 4.52778058719 0.0
1.14030889032 4.36437344809 0.0
1.15600477272 4.46808538305 0.0
0.435243219029 4.4750581257 0.0
0.462045157798 4.36654654286 0.0
0.735806812738 4.08472269746 0.0
1.30082934537 4.29793772796 0.0
0.299170654625 4.29793772796 0.0
0.533651712118 4.26265983853 0.0
0.666130919144 4.21652131559 0.0
1.0676097303 4.26179469382 0.0
1.08054433577 4.58530946155 0.0
0.506773767255 4.56568295079 0.0
0.626745312844 4.10124420826 0.0
0.933845304214 4.2106954732 0.0
0.293717639664 4.55175000185 0.0
0.312505022079 4.66426411351 0.0
1.3058164124 4.55154930624 0.0
1.29054387065 4.66302765963 0.0
0.973467966326 4.09941619478 0.0
0.487935413164 4.15087084015 0.0
0.461549079751 4.68836834982 0.0
1.11203248746 4.15093503889 0.0
1.14453515393 4.70617370303 0.0
0.840217564202 4.68891146633 0.0
0.585347033288 4.20539048534 0.0
0.619177396637 4.34227576306 0.0
0.331644410315 4.24962190462 0.0
1.26835558968 4.24962190462 0.0
1.01536156978 4.19987473052 0.0
0.809331033562 4.07065709122 0.0
0.982321540791 4.33437358971 0.0
0.725600576914 4.66999651799 0.0
0.812291456186 4.16642942492 0.0
0.335887692543 4.33918235669 0.0
1.26344844681 4.34017131907 0.0
1.23449730504 4.49457441524 0.0
1.34334172095 4.40539551957 0.0
0.256658279045 4.40539551957 0.0
0.741646926828 4.34287908527 0.0
0.674799084703 4.16673768522 0.0
1.18647435526 4.30955189749 0.0
0.360563250283 4.49596479569 0.0
0.873716483853 4.33845499203 0.0
0.418704489949 4.31146264283 0.0
0.492670911224 4.22931614809 0.0
0.403480880356 4.19046776931 0.0
1.19651541215 4.1904686246 0.0
0.728649253738 4.46214546491 0.0
1.00883674467 4.40174664879 0.0
1.11035034557 4.23161841276 0.0
0.261968539765 4.3130079512 0.0
1.33803146023 4.3130079512 0.0
0.74649980488 4.1318354354 0.0
0.927597725248 4.1577597079 0.0
0.892956618256 4.07619338913 0.0
0.659794281787 4.07951387326 0.0
0.587663534405 4.09486537006 0.0
0.942353209926 4.07935300973 0.0
1.01493747319 4.09476013719 0.0
0.613130017774 4.41369803882 0.0
0.449373501074 4.15377191978 0.0
0.514840228377 4.12225850006 0.0
0.497057592 4.41333092106 0.0
1.15061382426 4.15379293084 0.0
1.08514419473 4.12228328152 0.0
0.745617635771 4.23098957592 0.0
0.87523452213 4.59853036549 0.0
0.855262884783 4.2258970831 0.0
1.01126200032 4.53280064162 0.0
1.09391916408 4.40632408872 0.0
1.04436265455 4.71482000827 0.0
0.314320181089 4.38773968607 0.0
1.28649331902 4.38743720145 0.0
0.771211579291 4.06316862024 0.0
0.432259099658 4.24006002157 0.0
0.698583889427 4.07144353526 0.0
1.16802128371 4.238862881 0.0
1.09587629216 4.3086676659 0.0
1.35920470355 4.35666960471 0.0
0.240795296449 4.35666960471 0.0
0.504003580654 4.30815758118 0.0
0.579942709371 4.5342075073 0.0
0.875915224914 4.12815792528 0.0
0.426503136644 4.40717733008 0.0
0.57541416445 4.30365301522 0.0
0.683877978289 4.33161848113 0.0
0.888061695889 4.44633509246 0.0
0.26012287522 4.49859249103 0.0
1.33987712478 4.49859249103 0.0
0.801393572636 4.37060096582 0.0
0.558460082533 4.72496728209 0.0
1.1741923373 4.41132830101 0.0
0.83220012886 4.12779415912 0.0
1.02815069622 4.30053276509 0.0
0.948308583502 4.2880204454 0.0
0.846588933095 4.50834596945 0.0
0.343666800815 4.43485820652 0.0
1.25632767671 4.43480360053 0.0
0.97849585731 4.47031535602 0.0
1.10170977548 4.51507265998 0.0
0.662193131828 4.26809398492 0.0
0.400503668388 4.26881657105 0.0
1.20117145985 4.26130427377 0.0
0.350957892513 4.21796558019 0.0
1.24904210749 4.21796558019 0.0
0.771964652188 4.18905379403 0.0
0.932165148285 4.72736281402 0.0
0.373672364094 4.73321357765 0.0
0.760245937722 4.28409350779 0.0
0.848718469252 4.05767763075 0.0
1.23385612561 4.7358294747 0.0
0.846421485813 4.28065918421 0.0
0.651597058631 4.13043284014 0.0
0.650489852552 4.72138045504 0.0
0.58457834847 4.16375088261 0.0
0.48701309933 4.18859927013 0.0
0.708495738406 4.58856947756 0.0
1.11203398596 4.18878062515 0.0
0.54865558244 4.10250047869 0.0
1.05126102377 4.10234629471 0.0
0.300013757486 4.26259646442 0.0
1.29998624251 4.26259646442 0.0
0.9465032388 4.12718070354 0.0
0.708587583337 4.14146095907 0.0
0.973348904468 4.19537871864 0.0
0.628721855632 4.19538356945 0.0
0.380175010018 4.34021880077 0.0
0.662092932411 4.45899041267 0.0
1.05133526787 4.22221992007 0.0
0.528087045766 4.64327882187 0.0
1.22233124543 4.33521693908 0.0
1.19001193434 4.36273586668 0.0
0.853024099244 4.39544003492 0.0
0.542800296246 4.22324366905 0.0
0.247706318737 4.45239119247 0.0
1.35229368126 4.45239119247 0.0
0.599153768578 4.12953797005 0.0
1.01616570494 4.16227683178 0.0
0.744705786938 4.40569544575 0.0
1.31929001115 4.73702550052 0.0
0.777615355331 4.15113602511 0.0
1.33132411895 4.60631378639 0.0
0.265621610877 4.60975488866 0.0
0.532023338888 4.15374454388 0.0
1.0697792195 4.15241429251 0.0
0.286371037106 4.73010312914 0.0
0.497725885905 4.50153668256 0.0
0.46053455822 4.31587947599 0.0
0.433799237968 4.54629400991 0.0
0.388624781906 4.65094200004 0.0
0.554823673752 4.40451940232 0.0
1.1421595646 4.31818301431 0.0
1.14760043966 4.61655103139 0.0
1.21258698805 4.65320200685 0.0
1.16279096046 4.53292621409 0.0
0.995762647814 4.12508772517 0.0
0.456229040627 4.61456685246 0.0
0.707289391156 4.21520271873 0.0
0.763036833302 4.74285445535 0.0
0.78386198569 4.49787013126 0.0
[...]
POINT_DATA 999
VECTORS Displacement float
0.43733286829 -0.196225609847 0
0.44278415548 -0.196170030671 0
0.44 -0.2 0
0.44 -0.2 0
0.443018800139 -0.196153816642 0
0.443243934035 -0.196132762754 0
0.443445144489 -0.196108611291 0
0.443615633651 -0.196101491168 0
0.443718723287 -0.196121076469 0
0.443783412641 -0.196177974431 0
0.443750077728 -0.19628089114 0
0.443611360415 -0.196439662435 0
0.44335171272 -0.196695963919 0
0.442919422877 -0.197074870311 0
0.442292919372 -0.197642950286 0
0.44138869266 -0.198503027981 0
0.44 -0.2 0
0.44 -0.2 0
0.44 -0.2 0
0.44 -0.2 0
0.44 -0.2 0
0.44 -0.2 0
0.44 -0.2 0
0.44 -0.2 0
0.44 -0.2 0
0.44 -0.2 0
0.44 -0.2 0
0.44 -0.2 0
0.44 -0.2 0
0.44 -0.2 0
0.44 -0.2 0
0.44 -0.2 0
0.44 -0.2 0
0.438636357441 -0.198529031542 0
0.437746072425 -0.197679810325 0
0.437103584428 -0.197116184967 0
0.436697081737 -0.196737562837 0
0.436450913565 -0.196483171104 0
0.436320002841 -0.196326804267 0
0.436294810195 -0.196227326659 0
0.436367627351 -0.196172673739 0
0.436478166112 -0.196154617893 0
0.436655386675 -0.196162796765 0
0.436862703338 -0.196187643646 0
0.437093334475 -0.196209157536 0
0.437530694815 -0.196095685828 0
0.437748129199 -0.195950461466 0
0.437982895316 -0.195781360871 0
0.438239693873 -0.195588822564 0
0.438517388555 -0.195364659576 0
0.438807915198 -0.19510346478 0
0.439115776547 -0.194808071886 0
0.439453646215 -0.194474679966 0
0.43981841683 -0.194073276765 0
0.440190806297 -0.193635727466 0
0.440590851491 -0.193127328566 0
0.44104061716 -0.19253564445 0
0.441516468078 -0.191810593607 0
0.442049859393 -0.19090516399 0
0.442564231096 -0.189796043763 0
0.442983049514 -0.188693941739 0
0.443291854462 -0.18763731567 0
0.443523840915 -0.186579878013 0
0.443680055457 -0.185585335751 0
0.443772551391 -0.184619190463 0
0.44381217025 -0.183696558853 0
0.443783707595 -0.18280309072 0
0.443697661181 -0.182015267953 0
0.44356404587 -0.181264010861 0
0.443392381043 -0.180579562243 0
0.443173677004 -0.179950062238 0
0.442928883347 -0.179384406345 0
0.442648352976 -0.178881018112 0
0.442350636271 -0.178441479842 0
0.442019920465 -0.178057624479 0
0.441672952468 -0.177747575421 0
0.441301619391 -0.177497137396 0
0.440923697974 -0.177306309676 0
0.440532281859 -0.177163504395 0
0.44009901288 -0.177065991233 0
0.439667028003 -0.177188136233 0
0.439267367182 -0.177318914192 0
0.438885465788 -0.177503626052 0
0.438519130851 -0.177753994658 0
0.438170051187 -0.178066835462 0
0.43783737839 -0.178443907739 0
0.437526845732 -0.178886838703 0
0.437253709884 -0.179382983672 0
0.437007841849 -0.17994690594 0
0.436788548455 -0.180578019225 0
0.436613804993 -0.181259111967 0
0.436468514177 -0.181991831073 0
0.43639517868 -0.182831579817 0
0.436367515724 -0.183714279627 0
0.436405781821 -0.184629741345 0
0.436498967965 -0.185595383603 0
0.436657325697 -0.18659176684 0
0.436879175678 -0.18763116088 0
0.437197800644 -0.188709080936 0
0.437617839262 -0.189810736508 0
0.438130277622 -0.190912532489 0
0.438660310288 -0.191811030491 0
0.439128283294 -0.192523537224 0
0.439572091172 -0.193108211172 0
0.439966985775 -0.193611321451 0
0.440334658813 -0.194044508964 0
0.440694849528 -0.194441969147 0
0.441028455458 -0.194771942373 0
0.441332271 -0.195064183165 0
0.441618863571 -0.195322383703 0
0.441892616404 -0.195543693384 0
0.442145509584 -0.19573352736 0
0.442376433142 -0.195900047453 0
0.442590105428 -0.196042734 0
0.442435366934 -0.192461609552 0
0.437701988076 -0.192450768298 0
0.440107134475 -0.185909685434 0
0.439091581463 -0.186207951496 0
0.44320579992 -0.193942556835 0
0.43689353886 -0.193969639882 0
0.440992109268 -0.186041716013 0
0.440190034128 -0.181838717422 0
0.439941820611 -0.181731968387 0
0.441895817189 -0.190277584026 0
0.438262471379 -0.190195382459 0
0.439895858951 -0.193768329318 0
0.437187410879 -0.19629199002 0
0.442853031265 -0.196370081757 0
0.440657030354 -0.182859244061 0
0.440112669603 -0.186314828174 0
0.439420461098 -0.182807306104 0
0.440052802104 -0.1863178518 0
0.437855202717 -0.19322899901 0
0.442271510774 -0.193192630962 0
0.438914848178 -0.189043459816 0
0.443067636177 -0.195149759678 0
0.437042832804 -0.195186234297 0
0.440156829141 -0.179648220325 0
0.441283184025 -0.188779231581 0
0.441259324207 -0.195752803673 0
0.441101040806 -0.180404302698 0
0.43867275294 -0.195800175786 0
0.439771801432 -0.189285761863 0
0.439058246163 -0.180384537124 0
0.440386910296 -0.189288485225 0
0.443601788302 -0.195513292889 0
0.436485440203 -0.195540339559 0
0.442183924027 -0.189837727222 0
0.437891112141 -0.189970191832 0
0.43953741261 -0.185177583555 0
0.440585980742 -0.184979648046 0
0.440181273677 -0.189944680153 0
0.441559875979 -0.183850610637 0
0.438630154743 -0.183842338592 0
0.44007582611 -0.183290413839 0
0.438742778012 -0.192835985577 0
0.439503543749 -0.179153141877 0
0.439030223173 -0.19200415874 0
0.441114710947 -0.191995840629 0
0.44119309225 -0.192952295021 0
0.442767203183 -0.191889872149 0
0.443068004699 -0.193992731299 0
0.436961846629 -0.194239288645 0
0.437342690212 -0.191882862616 0
0.440856194719 -0.179063507595 0
0.442439552356 -0.194723810424 0
0.437684124373 -0.194757739908 0
0.438712309066 -0.187904577196 0
0.439816971265 -0.183799611057 0
0.441420465739 -0.187914959532 0
0.442208131884 -0.195476055834 0
0.437667813326 -0.195177504987 0
0.441822957008 -0.181227782378 0
0.440272730833 -0.183621782338 0
0.436641386476 -0.196489441055 0
0.437648480796 -0.19780020082 0
0.4434212989 -0.196461310291 0
0.442413770599 -0.197768940099 0
0.438312135147 -0.181185291525 0
0.441255119634 -0.186870646274 0
0.43836149957 -0.197768132849 0
0.438916011546 -0.186876948215 0
0.441507187656 -0.198097119684 0
0.440255081875 -0.196947357932 0
0.439819467869 -0.185055043741 0
0.438544315981 -0.188285173304 0
0.438511267401 -0.193909302625 0
0.44162545918 -0.193882933584 0
0.440236344569 -0.184921695308 0
0.439964723308 -0.178366904494 0
0.441540918997 -0.188085677551 0
0.439533997116 -0.196524302577 0
0.440047593123 -0.181236299679 0
0.437180006997 -0.194228471795 0
0.442941248232 -0.194196200644 0
0.44338634423 -0.195335722626 0
0.443506523489 -0.19566586671 0
0.436590175462 -0.195706775404 0
0.439560320779 -0.187059071181 0
0.440398206847 -0.182166875962 0
0.44249773244 -0.192134609159 0
0.436663378676 -0.195418956048 0
0.440677337513 -0.187006784451 0
0.437617707332 -0.192037682356 0
0.439101649719 -0.18835794572 0
0.439924607339 -0.191238097356 0
0.44023287376 -0.191235561824 0
0.439326508877 -0.19082507739 0
0.44200773339 -0.19034096765 0
0.441100663574 -0.188509855171 0
0.437476925303 -0.19542419502 0
0.44264274984 -0.195382190554 0
0.440420281352 -0.180341866433 0
0.439642322095 -0.181935166836 0
0.438865341264 -0.179141045492 0
0.441885263058 -0.179967953869 0
0.442400388405 -0.182064464079 0
0.438262386881 -0.1800080243 0
0.437741607678 -0.182135471102 0
0.438258695092 -0.190378639255 0
0.441219598612 -0.188642876849 0
0.442178293788 -0.185184201822 0
0.437362016468 -0.192130168118 0
0.438952845766 -0.188648842979 0
0.437995431509 -0.185193578946 0
0.43991288979 -0.183434946886 0
0.440657274554 -0.194684474495 0
0.440215461531 -0.18327760063 0
0.441938327971 -0.19372878725 0
0.442656644773 -0.191818987447 0
0.441111230601 -0.197956263739 0
0.436762035647 -0.194919105999 0
0.443338396302 -0.19489902553 0
0.440513667408 -0.178218166636 0
0.438725531832 -0.190657244544 0
0.4414929353 -0.179121419034 0
0.441393728412 -0.190646986014 0
0.442114758545 -0.189746664898 0
0.443145445547 -0.195712303916 0
0.436963542195 -0.195757940757 0
0.438015365636 -0.189742751112 0
0.438066511251 -0.193843392064 0
0.439576029728 -0.180416644282 0
0.436989506714 -0.19326579676 0
0.438492109281 -0.187980218945 0
0.439114390574 -0.187143363903 0
0.440931756198 -0.190428101459 0
0.436390561243 -0.196158066835 0
0.443680628166 -0.196123197105 0
0.440068002417 -0.187804480934 0
0.439007055276 -0.198144212198 0
0.443117023266 -0.193334215875 0
0.439867705357 -0.180100133805 0
0.441632600434 -0.187969124669 0
0.441010335899 -0.186198893404 0
0.440500312979 -0.19210299553 0
0.436621066957 -0.194909874982 0
0.443467860153 -0.194884997916 0
0.441779094688 -0.191823200988 0
0.442645750156 -0.194213162035 0
0.439328385107 -0.185438825571 0
0.438162805812 -0.192047441632 0
0.441844520188 -0.192017268935 0
0.439207286487 -0.193292855836 0
0.440939017651 -0.193272088634 0
0.440089378927 -0.181980198183 0
0.440589758418 -0.197969911457 0
0.43867311688 -0.198713476895 0
0.439820527505 -0.185082640365 0
0.439332666255 -0.178203126599 0
0.441315967928 -0.198754063536 0
0.440344033518 -0.184998554412 0
0.441040055289 -0.181504633663 0
0.439329033476 -0.19787236784 0
0.440658452737 -0.183937238203 0
0.440055733049 -0.187701269113 0
0.439249961869 -0.194471891905 0
0.440107641866 -0.187668821542 0
0.442585574156 -0.183486654383 0
0.437587584421 -0.183489430885 0
0.438269776337 -0.194679749185 0
0.441863350136 -0.194645663866 0
0.439079703857 -0.181383658894 0
0.440560685223 -0.18097703012 0
0.44011929754 -0.183852088731 0
0.440038701088 -0.183811134078 0
0.437240560274 -0.193311941441 0
0.438677578805 -0.191146104752 0
0.440727084629 -0.186468109575 0
0.438246752102 -0.196617712471 0
0.442833737382 -0.193297374292 0
0.442963380177 -0.192920185405 0
0.440564901689 -0.188703135782 0
0.439389621452 -0.186663595781 0
0.436390195507 -0.195964802076 0
0.443694343116 -0.195923717389 0
0.44139274129 -0.182644712936 0
0.439471074477 -0.183913303642 0
0.439507798796 -0.189031046385 0
0.441450551545 -0.198735828595 0
0.440173206629 -0.180778273768 0
0.443124508413 -0.197036529095 0
0.436940812662 -0.197099147283 0
0.441045255454 -0.185268891453 0
0.439077546913 -0.185305014511 0
0.438486470081 -0.198668093063 0
0.437381943116 -0.19394829281 0
0.437725391315 -0.191008065882 0
0.437161790023 -0.19547048891 0
0.437744532426 -0.197446458459 0
0.437796338568 -0.190969637391 0
0.442432235287 -0.19111261202 0
0.442353009997 -0.196546793467 0
0.442272526537 -0.197473385451 0
0.442941538516 -0.195195217507 0
0.43870412198 -0.182389610175 0
0.437696556951 -0.196494600384 0
0.439911022749 -0.183242823745 0
0.439861340731 -0.198225456224 0
0.439879202612 -0.191751901192 0
0.441083651907 -0.187294165958 0
0.440900993311 -0.190208956964 0
0.440202423735 -0.18309224556 0
0.439268498447 -0.19021465096 0
0.443555788648 -0.195821838804 0
0.441102507296 -0.178422787504 0
0.437893983508 -0.194088430753 0
0.442233747728 -0.19406107919 0
0.439825325371 -0.192488774527 0
0.440329073304 -0.192476145498 0
0.438188523809 -0.192121498717 0
0.437101294296 -0.19299327728 0
0.440451114319 -0.179118719729 0
0.439218431035 -0.193022416722 0
0.438435744822 -0.192996120418 0
0.441701247397 -0.192975726069 0
0.436526140267 -0.195802022167 0
0.44332159452 -0.194451538706 0
0.440692134059 -0.185003271256 0
0.437899429556 -0.195231771819 0
0.442227774535 -0.195191629815 0
0.441639372246 -0.197053430427 0
0.436775920286 -0.194456770931 0
0.437243582984 -0.195800710093 0
0.442871645707 -0.195753363262 0
0.442423251561 -0.180766894317 0
0.440087541511 -0.182305830814 0
0.442937209093 -0.196924489108 0
0.437099720957 -0.196939725213 0
0.438517788557 -0.188980596344 0
0.440879589073 -0.179936022373 0
0.440082645554 -0.184300969632 0
0.439867754093 -0.179215028355 0
0.442494190719 -0.190838769018 0
0.441641353931 -0.189036836531 0
0.438890815249 -0.186878679083 0
0.438367714664 -0.1791085227 0
0.437790170223 -0.180802033176 0
0.442808687274 -0.193296022242 0
0.437226611993 -0.194782076062 0
0.442888497768 -0.194748521194 0
0.441302672022 -0.194257824581 0
0.437609426955 -0.190868637866 0
0.439041481847 -0.186613767668 0
0.439707555962 -0.184975375003 0
0.43863120729 -0.194228425024 0
0.43988635434 -0.195872424172 0
0.44208266321 -0.186939883013 0
0.43809114183 -0.186945117516 0
0.438953865154 -0.189505236614 0
0.441108923407 -0.1894652098 0
0.436485461623 -0.196481714229 0
0.443578307467 -0.196447110731 0
0.439436092952 -0.185171764531 0
0.44114131109 -0.186770380089 0
0.440295803008 -0.185238274042 0
0.441739198632 -0.195437249362 0
0.438950713129 -0.17845483937 0
0.441421921408 -0.190492045567 0
0.443375850881 -0.195848832178 0
0.436726652013 -0.195895928887 0
0.439507356829 -0.190529485972 0
0.439266247121 -0.179689304388 0
0.440646085259 -0.190528223007 0
0.439638646247 -0.184321450332 0
0.440727032175 -0.196366550119 0
0.440863584007 -0.198855034652 0
0.442339311206 -0.190941186353 0
0.438134454169 -0.189501018827 0
0.443364807581 -0.195281573662 0
0.436736779634 -0.195317443497 0
0.443236338078 -0.196133879443 0
0.436811155984 -0.196114685087 0
0.439499579511 -0.181050230462 0
0.442136778368 -0.191343088022 0
0.442009905146 -0.179158594329 0
0.440195499269 -0.177769459204 0
0.439927371774 -0.181064289179 0
0.43709869955 -0.19322304978 0
0.438002503453 -0.191503837191 0
0.439038297727 -0.193965483329 0
0.44110539963 -0.19393808853 0
0.440353369437 -0.187188444625 0
0.440436772185 -0.184055191027 0
0.439666392899 -0.177963847976 0
0.442426126575 -0.197817864009 0
0.43745229304 -0.1938742537 0
0.442650088308 -0.193851217829 0
0.441832567258 -0.189039190021 0
0.437419458901 -0.197648644205 0
0.439198227785 -0.198928678326 0
0.442909034994 -0.192488171871 0
0.438138019627 -0.195583683085 0
0.440372407372 -0.182813266947 0
0.441632746016 -0.189065144102 0
0.44180911973 -0.188656199371 0
0.440501559695 -0.184905632527 0
0.44132776849 -0.187025503175 0
0.438580729293 -0.189126308117 0
0.436901017404 -0.195185042456 0
0.4415090717 -0.180767986811 0
0.441254856998 -0.182108380554 0
0.436981539145 -0.194765330888 0
0.443126117374 -0.194749291279 0
0.438711469528 -0.194455158599 0
0.441427662948 -0.194423081556 0
0.43993005612 -0.182204252891 0
0.442371554535 -0.192622106764 0
0.442343025097 -0.193675314141 0
0.439803466882 -0.182840470397 0
0.438294686057 -0.188715583397 0
0.439591417968 -0.185795590001 0
0.437523306342 -0.192880470071 0
0.437191565197 -0.195511294849 0
0.442922433515 -0.195469018892 0
0.440256324478 -0.198417719323 0
0.440687189091 -0.186328686704 0
0.440652656415 -0.187938457887 0
0.43719974268 -0.192475041078 0
0.440588132601 -0.185751358144 0
0.438621704007 -0.180744902815 0
0.437373648987 -0.19291509227 0
0.440690119342 -0.187182903969 0
0.440891984088 -0.199061024581 0
0.442974761957 -0.182616276723 0
0.439524213753 -0.187951553409 0
0.439184708979 -0.196182615836 0
0.440247744978 -0.18105469646 0
0.439568162285 -0.186457193167 0
0.439944236213 -0.184064524312 0
0.442927059622 -0.184211553637 0
0.437164399547 -0.182613963562 0
0.439512411537 -0.187168901662 0
0.4372481478 -0.184223099486 0
0.440067132145 -0.180405716094 0
0.440208142177 -0.184002131674 0
0.440255283414 -0.178678578154 0
0.443618582692 -0.195907109051 0
0.436473468035 -0.195951903443 0
0.442868648867 -0.181161180286 0
0.442525861778 -0.180035686137 0
0.439724315944 -0.198786460722 0
0.437669301188 -0.180031522261 0
0.437308708863 -0.181191992161 0
0.442748662741 -0.186059044608 0
0.442251724209 -0.187899388128 0
0.440155854744 -0.182400547497 0
0.437427648704 -0.186068341545 0
0.437924801609 -0.187902572254 0
0.443229346923 -0.194821291211 0
0.441464488561 -0.196596564596 0
0.439884153182 -0.186896063045 0
0.440923058915 -0.17791272171 0
0.438744368634 -0.17968564001 0
0.441535814395 -0.178366459635 0
0.440761931217 -0.181242228185 0
0.443030631652 -0.193823835254 0
0.443362007245 -0.195577297806 0
0.436740522585 -0.195618601082 0
0.437712024306 -0.193607532721 0
0.443508247875 -0.195273311409 0
0.436585620079 -0.195305462517 0
0.44037872549 -0.193593031361 0
0.43940773666 -0.185595657058 0
0.440529748587 -0.198763984855 0
0.439638234743 -0.178700948059 0
0.440851663562 -0.188387741315 0
0.440607571012 -0.19172772365 0
0.439556830637 -0.191724747867 0
0.436911058115 -0.194387789044 0
0.440861925841 -0.186129467527 0
0.438426049423 -0.182957242852 0
0.440304824716 -0.183786253484 0
0.442570339343 -0.195621320604 0
0.440038074813 -0.182501424395 0
0.439258060057 -0.186038511227 0
0.44149700554 -0.17978911343 0
0.440078592765 -0.182142196749 0
0.436808222481 -0.194050324096 0
0.439128035739 -0.189758032082 0
0.439675655794 -0.179998747631 0
0.439728566647 -0.190218111159 0
0.439192521604 -0.18788626975 0
0.441988068453 -0.184279989448 0
0.440205626428 -0.190104674572 0
0.43995692722 -0.190107491865 0
0.438189156149 -0.184287110025 0
0.440345942653 -0.186078778318 0
0.440582004701 -0.179598329167 0
0.442069422718 -0.183080832824 0
0.443546648705 -0.195372993311 0
0.436538121253 -0.195370990485 0
0.439200982541 -0.19914035277 0
0.439799892064 -0.183787333941 0
0.443280593501 -0.194010909158 0
0.440338494122 -0.179758334723 0
0.43849868944 -0.178597214482 0
0.437295799862 -0.195155549168 0
0.442819984841 -0.195117935183 0
0.437680512144 -0.195663655374 0
0.442442919928 -0.195617780449 0
0.439249101839 -0.179111516358 0
0.437329206917 -0.192287645458 0
0.441808908256 -0.181977047064 0
0.443157405726 -0.195771793998 0
0.440742398945 -0.185903853579 0
0.438820156302 -0.18169531172 0
0.443193402455 -0.1943651619 0
0.43709751603 -0.195958235217 0
0.443014604036 -0.195908227914 0
0.440777941605 -0.193181955367 0
0.442077347205 -0.191554307729 0
0.441428219975 -0.18580287025 0
0.437532229474 -0.194364435066 0
0.442588820467 -0.194334395604 0
0.438611247749 -0.191580693497 0
0.44002524385 -0.182869054047 0
0.441486545567 -0.191597435155 0
0.440735576442 -0.185195054424 0
0.440765620898 -0.178531610034 0
0.437608141475 -0.191073587998 0
0.438751088119 -0.185838817254 0
0.439412874779 -0.191361195339 0
0.440738326101 -0.191356152009 0
0.441652010675 -0.19309196916 0
0.43866643236 -0.189345388761 0
0.439129154609 -0.199247910901 0
0.438295203702 -0.19506736948 0
0.441838104684 -0.195028828636 0
0.441059917125 -0.179371076267 0
0.441551594831 -0.189494665621 0
0.438623297362 -0.18950383317 0
0.439756546434 -0.184490371909 0
0.44011916441 -0.182928866732 0
0.439371421188 -0.198588659425 0
0.439505768621 -0.188680465282 0
0.438978175305 -0.191721079324 0
0.442726884233 -0.192057322622 0
0.440541148321 -0.190830326687 0
0.440653759891 -0.188739489212 0
0.440383695114 -0.184368698528 0
0.443612915362 -0.195661992409 0
0.43647695545 -0.195699270804 0
0.438964183416 -0.187850624181 0
0.438151755414 -0.193578466439 0
0.441977512421 -0.193544741093 0
0.442068192458 -0.190018084712 0
0.438732525167 -0.193392510787 0
0.441389833222 -0.193355428519 0
0.436344291934 -0.196119986277 0
0.443734210883 -0.196079006664 0
0.438824403665 -0.186966483242 0
0.440976692805 -0.19721209148 0
0.443036223159 -0.19329387054 0
0.440905252434 -0.191838587568 0
0.441496733113 -0.189426939582 0
0.440107799919 -0.18253193134 0
0.439794547611 -0.185646675426 0
0.437941196075 -0.179351089424 0
0.442087723852 -0.192690724112 0
0.443361694766 -0.194498632684 0
0.436732802385 -0.19452496166 0
0.437808069077 -0.192244295584 0
0.438065278225 -0.190009618282 0
0.440428408509 -0.18430207019 0
0.438681995409 -0.190165231225 0
0.439749568229 -0.181352443259 0
0.441643194554 -0.189917136951 0
0.441058826483 -0.189487387994 0
0.439673122375 -0.194725241095 0
0.441211944653 -0.187987663148 0
0.442026724725 -0.180537758338 0
0.441911342401 -0.188946827798 0
0.442964940881 -0.192692381042 0
0.44033543626 -0.19569883096 0
0.438362776894 -0.188531269211 0
0.439714711956 -0.187966046622 0
0.438950693132 -0.197358160055 0
0.438338180793 -0.193124375379 0
0.438666578361 -0.187638877337 0
0.439775356185 -0.183938441738 0
0.438778624415 -0.188105877551 0
0.437936108579 -0.191485997044 0
0.438142842903 -0.180529965185 0
0.437962947052 -0.181515660335 0
0.436898498877 -0.196003296906 0
0.443209020313 -0.195952779254 0
0.443684650122 -0.195884079967 0
0.436395047774 -0.195920859104 0
0.440500005683 -0.17768647726 0
0.440384754453 -0.181018535844 0
0.441466295962 -0.187638871164 0
0.439961342139 -0.182780124154 0
0.442091239453 -0.194608492198 0
0.43858349346 -0.197716323276 0
0.44313914678 -0.19346416224 0
0.440322694504 -0.183697133543 0
0.440180122262 -0.185803618957 0
0.441245720614 -0.187231762531 0
0.438574159594 -0.190160975694 0
0.439259378508 -0.181113645713 0