# vtk DataFile Version 2.0
Generated with Solid Solver
ASCII
DATASET UNSTRUCTURED_GRID
POINTS 999 float 
0.2 4.325 0.0
1.4 4.325 0.0
1.4 4.825 0.0
0.2 4.825 0.0
1.4 4.34523264049 0.0
1.4 4.36751203886 0.0
1.4 4.39204525371 0.0
1.4 4.4190602782 0.0
1.4 4.44880817466 0.0
1.4 4.48156541084 0.0
1.4 4.51763640748 0.0
1.4 4.5573564007 0.0
1.4 4.60109451608 0.0
1.4 4.64925723872 0.0
1.4 4.70229217343 0.0
1.4 4.76069218095 0.0
1.33333333333 4.825 0.0
1.26666666667 4.825 0.0
1.2 4.825 0.0
1.13333333333 4.825 0.0
1.06666666667 4.825 0.0
1.0 4.825 0.0
0.933333333334 4.825 0.0
0.866666666668 4.825 0.0
0.800000000001 4.825 0.0
0.733333333334 4.825 0.0
0.666666666668 4.825 0.0
0.600000000001 4.825 0.0
0.533333333334 4.825 0.0
0.466666666667 4.825 0.0
0.4 4.825 0.0
0.333333333334 4.825 0.0
0.266666666667 4.825 0.0
0.2 4.76069218095 0.0
0.2 4.70229217343 0.0
0.2 4.64925723872 0.0
0.2 4.60109451608 0.0
0.2 4.5573564007 0.0
0.2 4.51763640748 0.0
0.2 4.48156541084 0.0
0.2 4.44880817466 0.0
0.2 4.4190602782 0.0
0.2 4.39204525371 0.0
0.2 4.36751203886 0.0
0.2 4.34523264049 0.0
0.212131543907 4.30926329506 0.0
0.224675715302 4.29385348652 0.0
0.23762369102 4.27878141198 0.0
0.250966423879 4.26405760374 0.0
0.264694484585 4.24969246611 0.0
0.278798324214 4.23569599189 0.0
0.293267939266 4.22207810803 0.0
0.308093289028 4.20884826442 0.0
0.323263842145 4.19601585877 0.0
0.338769084145 4.18358978512 0.0
0.354597997314 4.17157887342 0.0
0.37073960121 4.15999145532 0.0
0.387182441982 4.14883575334 0.0
0.403915091795 4.13811952025 0.0
0.420925712897 4.12785033813 0.0
0.438202430937 4.11803537461 0.0
0.455733079095 4.10868154223 0.0
0.473505374364 4.09979539439 0.0
0.491506842655 4.09138316882 0.0
0.509724826085 4.0834507802 0.0
0.528146580414 4.07600377808 0.0
0.546759103951 4.06904741762 0.0
0.56554943677 4.06258654322 0.0
0.584504260001 4.05662573401 0.0
0.60361041518 4.0511691282 0.0
0.622854334779 4.04622060039 0.0
0.642222678753 4.04178358113 0.0
0.661701681839 4.03786122392 0.0
0.681277836375 4.03445624851 0.0
0.700937245817 4.03157107217 0.0
0.720666255912 4.02920769845 0.0
0.740450894784 4.02736780161 0.0
0.76027736978 4.02605266363 0.0
0.780131702711 4.02526321235 0.0
0.799999999998 4.025 0.0
0.819868297285 4.02526321235 0.0
0.839722630216 4.02605266363 0.0
0.859549105212 4.02736780161 0.0
0.879333744085 4.02920769845 0.0
0.89906275418 4.03157107217 0.0
0.918722163621 4.03445624851 0.0
0.938298318157 4.03786122392 0.0
0.957777321244 4.04178358113 0.0
0.977145665218 4.04622060039 0.0
0.996389584817 4.0511691282 0.0
1.01549574 4.05662573401 0.0
1.03445056323 4.06258654322 0.0
1.05324089605 4.06904741762 0.0
1.07185341958 4.07600377808 0.0
1.09027517391 4.0834507802 0.0
1.10849315734 4.09138316882 0.0
1.12649462563 4.09979539439 0.0
1.1442669209 4.10868154222 0.0
1.16179756906 4.1180353746 0.0
1.1790742871 4.12785033813 0.0
1.1960849082 4.13811952024 0.0
1.21281755802 4.14883575334 0.0
1.22926039879 4.15999145532 0.0
1.24540200269 4.17157887342 0.0
1.26123091585 4.18358978512 0.0
1.27673615785 4.19601585877 0.0
1.29190671097 4.20884826442 0.0
1.30673206073 4.22207810803 0.0
1.32120167579 4.23569599189 0.0
1.33530551541 4.24969246611 0.0
1.34903357612 4.26405760374 0.0
1.36237630898 4.27878141198 0.0
1.3753242847 4.29385348652 0.0
1.38786845609 4.30926329506 0.0
1.05632730172 4.46025283906 0.0
0.549964048968 4.4630053958 0.0
0.806135520676 4.31186690218 0.0
0.603895783049 4.26079310371 0.0
1.22984770884 4.38318704125 0.0
0.3703382852 4.38423552752 0.0
0.995322815839 4.25565031136 0.0
0.728315816804 4.1765935937 0.0
0.872128173905 4.17288724072 0.0
1.14059401893 4.27298468684 0.0
0.461553191009 4.27181671009 0.0
0.784706775856 4.56821390922 0.0
0.398287125272 4.57945970538 0.0
1.20625306554 4.58334743514 0.0
0.624100842742 4.1589824436 0.0
0.5257453845 4.18811776279 0.0
0.978502430793 4.15488737058 0.0
1.07419209812 4.18825154482 0.0
0.364313698077 4.28677035763 0.0
1.23509538257 4.28681716733 0.0
0.68124123937 4.39284548972 0.0
1.31679378691 4.35012066749 0.0
0.283206213094 4.35012066749 0.0
0.791498533126 4.11467141721 0.0
0.931481076052 4.3801344917 0.0
0.966719065571 4.62778042839 0.0
0.684451667517 4.11068036752 0.0
0.618335406951 4.62686910993 0.0
0.450982331762 4.19686171732 0.0
0.915674266355 4.10995633851 0.0
1.14900051594 4.19689012964 0.0
1.30193709687 4.4481448133 0.0
0.298574667609 4.44816296922 0.0
1.05734787542 4.34990107617 0.0
0.539273225177 4.35252599628 0.0
0.709896798149 4.27721026287 0.0
0.895708916005 4.26924194389 0.0
0.813273511364 4.43835766235 0.0
0.559289631452 4.13230879113 0.0
1.04001407307 4.13281539633 0.0
0.801161810585 4.23146244955 0.0
0.665113819616 4.52056650186 0.0
0.852577362173 4.09111846388 0.0
0.390256727869 4.2242806298 0.0
1.20974450479 4.22428104599 0.0
0.921542541183 4.52778058719 0.0
1.14030889032 4.36437344809 0.0
1.15600477272 4.46808538305 0.0
0.435243219029 4.4750581257 0.0
0.462045157798 4.36654654286 0.0
0.735806812738 4.08472269746 0.0
1.30082934537 4.29793772796 0.0
0.299170654625 4.29793772796 0.0
0.533651712118 4.26265983853 0.0
0.666130919144 4.21652131559 0.0
1.0676097303 4.26179469382 0.0
1.08054433577 4.58530946155 0.0
0.506773767255 4.56568295079 0.0
0.626745312844 4.10124420826 0.0
0.933845304214 4.2106954732 0.0
0.293717639664 4.55175000185 0.0
0.312505022079 4.66426411351 0.0
1.3058164124 4.55154930624 0.0
1.29054387065 4.66302765963 0.0
0.973467966326 4.09941619478 0.0
0.487935413164 4.15087084015 0.0
0.461549079751 4.68836834982 0.0
1.11203248746 4.15093503889 0.0
1.14453515393 4.70617370303 0.0
0.840217564202 4.68891146633 0.0
0.585347033288 4.20539048534 0.0
0.619177396637 4.34227576306 0.0
0.331644410315 4.24962190462 0.0
1.26835558968 4.24962190462 0.0
1.01536156978 4.19987473052 0.0
0.809331033562 4.07065709122 0.0
0.982321540791 4.33437358971 0.0
0.725600576914 4.66999651799 0.0
0.812291456186 4.16642942492 0.0
0.335887692543 4.33918235669 0.0
1.26344844681 4.34017131907 0.0
1.23449730504 4.49457441524 0.0
1.34334172095 4.40539551957 0.0
0.256658279045 4.40539551957 0.0
0.741646926828 4.34287908527 0.0
0.674799084703 4.16673768522 0.0
1.18647435526 4.30955189749 0.0
0.360563250283 4.49596479569 0.0
0.873716483853 4.33845499203 0.0
0.418704489949 4.31146264283 0.0
0.492670911224 4.22931614809 0.0
0.403480880356 4.19046776931 0.0
1.19651541215 4.1904686246 0.0
0.728649253738 4.46214546491 0.0
1.00883674467 4.40174664879 0.0
1.11035034557 4.23161841276 0.0
0.261968539765 4.3130079512 0.0
1.33803146023 4.3130079512 0.0
0.74649980488 4.1318354354 0.0
0.927597725248 4.1577597079 0.0
0.892956618256 4.07619338913 0.0
0.659794281787 4.07951387326 0.0
0.587663534405 4.09486537006 0.0
0.942353209926 4.07935300973 0.0
1.01493747319 4.09476013719 0.0
0.613130017774 4.41369803882 0.0
0.449373501074 4.15377191978 0.0
0.514840228377 4.12225850006 0.0
0.497057592 4.41333092106 0.0
1.15061382426 4.15379293084 0.0
1.08514419473 4.12228328152 0.0
0.745617635771 4.23098957592 0.0
0.87523452213 4.59853036549 0.0
0.855262884783 4.2258970831 0.0
1.01126200032 4.53280064162 0.0
1.09391916408 4.40632408872 0.0
1.04436265455 4.71482000827 0.0
0.314320181089 4.38773968607 0.0
1.28649331902 4.38743720145 0.0
0.771211579291 4.06316862024 0.0
0.432259099658 4.24006002157 0.0
0.698583889427 4.07144353526 0.0
1.16802128371 4.238862881 0.0
1.09587629216 4.3086676659 0.0
1.35920470355 4.35666960471 0.0
0.240795296449 4.35666960471 0.0
0.504003580654 4.30815758118 0.0
0.579942709371 4.5342075073 0.0
0.875915224914 4.12815792528 0.0
0.426503136644 4.40717733008 0.0
0.57541416445 4.30365301522 0.0
0.683877978289 4.33161848113 0.0
0.888061695889 4.44633509246 0.0
0.26012287522 4.49859249103 0.0
1.33987712478 4.49859249103 0.0
0.801393572636 4.37060096582 0.0
0.558460082533 4.72496728209 0.0
1.1741923373 4.41132830101 0.0
0.83220012886 4.12779415912 0.0
1.02815069622 4.30053276509 0.0
0.948308583502 4.2880204454 0.0
0.846588933095 4.50834596945 0.0
0.343666800815 4.43485820652 0.0
1.25632767671 4.43480360053 0.0
0.97849585731 4.47031535602 0.0
1.10170977548 4.51507265998 0.0
0.662193131828 4.26809398492 0.0
0.400503668388 4.26881657105 0.0
1.20117145985 4.26130427377 0.0
0.350957892513 4.21796558019 0.0
1.24904210749 4.21796558019 0.0
0.771964652188 4.18905379403 0.0
0.932165148285 4.72736281402 0.0
0.373672364094 4.73321357765 0.0
0.760245937722 4.28409350779 0.0
0.848718469252 4.05767763075 0.0
1.23385612561 4.7358294747 0.0
0.846421485813 4.28065918421 0.0
0.651597058631 4.13043284014 0.0
0.650489852552 4.72138045504 0.0
0.58457834847 4.16375088261 0.0
0.48701309933 4.18859927013 0.0
0.708495738406 4.58856947756 0.0
1.11203398596 4.18878062515 0.0
0.54865558244 4.10250047869 0.0
1.05126102377 4.10234629471 0.0
0.300013757486 4.26259646442 0.0
1.29998624251 4.26259646442 0.0
0.9465032388 4.12718070354 0.0
0.708587583337 4.14146095907 0.0
0.973348904468 4.19537871864 0.0
0.628721855632 4.19538356945 0.0
0.380175010018 4.34021880077 0.0
0.662092932411 4.45899041267 0.0
1.05133526787 4.22221992007 0.0
0.528087045766 4.64327882187 0.0
1.22233124543 4.33521693908 0.0
1.19001193434 4.36273586668 0.0
0.853024099244 4.39544003492 0.0
0.542800296246 4.22324366905 0.0
0.247706318737 4.45239119247 0.0
1.35229368126 4.45239119247 0.0
0.599153768578 4.12953797005 0.0
1.01616570494 4.16227683178 0.0
0.744705786938 4.40569544575 0.0
1.31929001115 4.73702550052 0.0
0.777615355331 4.15113602511 0.0
1.33132411895 4.60631378639 0.0
0.265621610877 4.60975488866 0.0
0.532023338888 4.15374454388 0.0
1.0697792195 4.15241429251 0.0
0.286371037106 4.73010312914 0.0
0.497725885905 4.50153668256 0.0
0.46053455822 4.31587947599 0.0
0.433799237968 4.54629400991 0.0
0.388624781906 4.65094200004 0.0
0.554823673752 4.40451940232 0.0
1.1421595646 4.31818301431 0.0
1.14760043966 4.61655103139 0.0
1.21258698805 4.65320200685 0.0
1.16279096046 4.53292621409 0.0
0.995762647814 4.12508772517 0.0
0.456229040627 4.61456685246 0.0
0.707289391156 4.21520271873 0.0
0.763036833302 4.74285445535 0.0
0.78386198569 4.49787013126 0.0
[...]
POINT_DATA 999
VECTORS Displacement float
0.237250658055 -0.196182413448 0
0.242702804253 -0.196207701208 0
0.24 -0.2 0
0.24 -0.2 0
0.242941146489 -0.196191299675 0
0.243170413348 -0.196169880236 0
0.24337615204 -0.19614517423 0
0.243551535337 -0.196137278908 0
0.243659895602 -0.196155878981 0
0.243730316491 -0.196211501244 0
0.24370313243 -0.196312795953 0
0.243571078818 -0.19646940755 0
0.24331851103 -0.196722896605 0
0.242893749191 -0.197098050899 0
0.242275068904 -0.197661219946 0
0.241379054057 -0.198514058539 0
0.24 -0.2 0
0.24 -0.2 0
0.24 -0.2 0
0.24 -0.2 0
0.24 -0.2 0
0.24 -0.2 0
0.24 -0.2 0
0.24 -0.2 0
0.24 -0.2 0
0.24 -0.2 0
0.24 -0.2 0
0.24 -0.2 0
0.24 -0.2 0
0.24 -0.2 0
0.24 -0.2 0
0.24 -0.2 0
0.24 -0.2 0
0.238625095569 -0.198516088206 0
0.237725452819 -0.197658616459 0
0.237074548645 -0.197089142862 0
0.236660187246 -0.196706085866 0
0.236406815208 -0.196448472977 0
0.236269265515 -0.196289671545 0
0.236238092583 -0.196188369476 0
0.236305486755 -0.196132311846 0
0.236411108271 -0.196113208177 0
0.236583896435 -0.196120604487 0
0.236787194882 -0.196144931476 0
0.237014246203 -0.196166115978 0
0.237446101431 -0.196054152559 0
0.23766121186 -0.195910493635 0
0.237893655211 -0.195742924638 0
0.238148129543 -0.195551922292 0
0.238423489767 -0.195329304026 0
0.238711648818 -0.19506970231 0
0.239017113817 -0.194775947215 0
0.239352509473 -0.194444277915 0
0.239714714463 -0.194044745481 0
0.240084467774 -0.193609189695 0
0.240481716759 -0.193103031263 0
0.240928401732 -0.192513996223 0
0.241400599425 -0.191792922256 0
0.241931884366 -0.190887893627 0
0.242441785911 -0.189783933776 0
0.242852326844 -0.188699119458 0
0.243167673294 -0.18763343853 0
0.243398018829 -0.186580732381 0
0.243555570373 -0.185584748589 0
0.243650060242 -0.184613335118 0
0.243686791833 -0.183698760446 0
0.243660281789 -0.182803832548 0
0.243580815049 -0.181989756928 0
0.24343931646 -0.181250572593 0
0.243266006013 -0.180567079868 0
0.243045935861 -0.179937824246 0
0.242799582806 -0.179373060012 0
0.242517307716 -0.178872170245 0
0.242218248359 -0.178434375729 0
0.241886383348 -0.178052686565 0
0.241538449222 -0.177743063616 0
0.241166101354 -0.177492259692 0
0.240786917443 -0.177302158963 0
0.240392803026 -0.177175049401 0
0.239950490388 -0.177039508829 0
0.239523831308 -0.177158608189 0
0.239126408819 -0.17729675817 0
0.238746739129 -0.177486473762 0
0.238382054242 -0.177738445858 0
0.238034106866 -0.178051755929 0
0.237702368212 -0.178429811948 0
0.237392788062 -0.178874167827 0
0.237120388218 -0.179370928566 0
0.236875723686 -0.179937002223 0
0.236657617204 -0.180570106811 0
0.23648543717 -0.181255419049 0
0.236350991177 -0.182005740637 0
0.236259920315 -0.182790782567 0
0.236236409984 -0.183697161252 0
0.236275700426 -0.18461621909 0
0.236368353948 -0.185581354227 0
0.236529246325 -0.186583986821 0
0.236757616064 -0.187631170432 0
0.237071812473 -0.188696444308 0
0.237481325097 -0.189782050993 0
0.237997257871 -0.190897983817 0
0.23853112767 -0.191804198637 0
0.239005649726 -0.192526969899 0
0.239454536872 -0.19311746602 0
0.239853702573 -0.193624894417 0
0.24022524144 -0.194061602964 0
0.240589142852 -0.194462224186 0
0.240926179356 -0.194794872463 0
0.241233214333 -0.195089561599 0
0.241522920426 -0.195350044697 0
0.241799707522 -0.195573474706 0
0.242055556211 -0.195765330736 0
0.242289372345 -0.195933806904 0
0.242505894382 -0.196078420958 0
0.242377812579 -0.19245990446 0
0.237643623546 -0.192442200854 0
0.240019728197 -0.185901565616 0
0.238994875777 -0.186199529346 0
0.24313565915 -0.193953123209 0
0.23682191159 -0.193948964674 0
0.240893231361 -0.186033528795 0
0.240078538977 -0.181829230894 0
0.239829183222 -0.181721395496 0
0.241801249338 -0.190274170647 0
0.238170016187 -0.19018322116 0
0.239855875449 -0.193764279535 0
0.237150003671 -0.196279596981 0
0.242818961209 -0.19637705339 0
0.240543252832 -0.182849273168 0
0.240002383652 -0.186308104694 0
0.239303761332 -0.182798339453 0
0.239939560981 -0.186308266249 0
0.237766992708 -0.193206557748 0
0.242182581279 -0.193202236458 0
0.238842770241 -0.189036248849 0
0.242991386528 -0.195173097675 0
0.236965068965 -0.195154888062 0
0.240032997364 -0.179636976327 0
0.241208930916 -0.188772911082 0
0.241230671782 -0.195751249825 0
0.240980271046 -0.180395014158 0
0.238643010181 -0.19579583352 0
0.239665488053 -0.18927628821 0
0.238935574444 -0.180373291892 0
0.240273622552 -0.189279683944 0
0.24354373259 -0.195532841346 0
0.236424359437 -0.195513762374 0
0.242104487171 -0.18983332565 0
0.237812344801 -0.189960647534 0
0.239443688026 -0.18516907957 0
0.240490442207 -0.184971042881 0
0.24011772996 -0.189938629315 0
0.241440473167 -0.183842602185 0
0.238507395774 -0.183830907291 0
0.239973600515 -0.183281016832 0
0.238694376866 -0.19283032861 0
0.239376708814 -0.179138855766 0
0.238930832298 -0.191985304509 0
0.241011310312 -0.191997415397 0
0.241146676478 -0.192948643056 0
0.242692035057 -0.191890654139 0
0.243013107021 -0.193996725511 0
0.236906147549 -0.194225721867 0
0.237267431426 -0.19186962671 0
0.240729129795 -0.179055715061 0
0.242353290122 -0.194745002634 0
0.237597872047 -0.19472736965 0
0.238616478027 -0.187895869878 0
0.239712512041 -0.183790513782 0
0.2413225129 -0.18790777973 0
0.242173542905 -0.195476690418 0
0.23762803595 -0.19516952359 0
0.241702251337 -0.181216310475 0
0.240166256493 -0.183612596558 0
0.236598089075 -0.19646712307 0
0.237624746165 -0.19778717143 0
0.243381405098 -0.196478264065 0
0.242392398369 -0.197779036787 0
0.238188268739 -0.181176586091 0
0.24113761201 -0.186866705204 0
0.238342350668 -0.197762716787 0
0.238795545515 -0.186867601604 0
0.241492405442 -0.198099185238 0
0.240235304719 -0.196945547928 0
0.239712529612 -0.185046629709 0
0.238462913423 -0.188277107084 0
0.238416935989 -0.193882407143 0
0.241529078381 -0.193898160731 0
0.240126372962 -0.184912575336 0
0.239831574998 -0.178351407185 0
0.241457811447 -0.188079032166 0
0.239511002437 -0.196521596127 0
0.239933590418 -0.181225613566 0
0.237100655416 -0.19420328654 0
0.242863122331 -0.194211183273 0
0.243336769781 -0.195346524008 0
0.243440408257 -0.195692493064 0
0.2365214051 -0.19567340132 0
0.239478753636 -0.187051397843 0
0.240285723002 -0.182157256399 0
0.242412401644 -0.19213790297 0
0.236611123585 -0.195400499038 0
0.240594926026 -0.186999265488 0
0.2375331982 -0.192021173583 0
0.239000175584 -0.188349272349 0
0.239818525569 -0.191221902165 0
0.240119681264 -0.191230386895 0
0.239267307339 -0.190819049261 0
0.241938243562 -0.190336448687 0
0.240996045223 -0.188502403168 0
0.237393004019 -0.195389347217 0
0.242559336177 -0.195409535224 0
0.240300755768 -0.180332445971 0
0.23952706917 -0.181925267346 0
0.238736783329 -0.179127730084 0
0.241761117582 -0.179958047494 0
0.242279291024 -0.182050890053 0
0.238135342904 -0.179996994207 0
0.23761578364 -0.182130282968 0
0.238190813749 -0.190370974798 0
0.241103452636 -0.18863783186 0
0.242057176892 -0.185180269366 0
0.237294926153 -0.192119073063 0
0.238827409631 -0.188637446107 0
0.23787181085 -0.185180621015 0
0.239810749622 -0.183425793306 0
0.24062295386 -0.194681516052 0
0.240112141683 -0.183268080042 0
0.241893695901 -0.193726857248 0
0.242589114114 -0.191817901962 0
0.241096827121 -0.197956464068 0
0.236690790098 -0.19489248701 0
0.243269246216 -0.194917299524 0
0.240380531061 -0.178211359187 0
0.238628064986 -0.190643488135 0
0.241365831956 -0.17911386162 0
0.241292030691 -0.190643459374 0
0.242027184482 -0.189742474248 0
0.243070169861 -0.195742496769 0
0.236886532067 -0.195721099924 0
0.237928758334 -0.189732198936 0
0.238020856955 -0.193836668096 0
0.239455928448 -0.180404760871 0
0.236921744785 -0.193250348706 0
0.238403665074 -0.187971666294 0
0.239030776646 -0.187135494147 0
0.240869996659 -0.190422630428 0
0.236337622162 -0.196128854294 0
0.243631220264 -0.196146573082 0
0.239991656371 -0.187797286905 0
0.238993131258 -0.198141408567 0
0.243051627018 -0.19333906926 0
0.239746862994 -0.180087923543 0
0.241542731587 -0.187962399426 0
0.240918112676 -0.186190941994 0
0.24044986929 -0.19209831708 0
0.236558076581 -0.194887753979 0
0.24340746991 -0.194898832578 0
0.241722555291 -0.191819441364 0
0.242598938888 -0.194214232963 0
0.239233030952 -0.185430303483 0
0.238071154769 -0.192029378337 0
0.241749296976 -0.192020036432 0
0.239107267455 -0.193268321622 0
0.240835120244 -0.193282717788 0
0.239979613076 -0.1819703962 0
0.240576296366 -0.197969139331 0
0.23866104305 -0.198707983173 0
0.239728008322 -0.185074135345 0
0.239199840521 -0.178186055602 0
0.241305728558 -0.19875771347 0
0.240250764366 -0.184989970764 0
0.240922638026 -0.181494380579 0
0.239314197263 -0.197870173436 0
0.240544526559 -0.183928217069 0
0.239946203805 -0.187694664708 0
0.239213465374 -0.194467702763 0
0.239993361524 -0.187659587329 0
0.242462096503 -0.183480726764 0
0.23745890776 -0.183473179328 0
0.238177759763 -0.194648949486 0
0.241769921483 -0.194666973236 0
0.238959668349 -0.181373907837 0
0.240443839409 -0.180967700629 0
0.24000945302 -0.183843044058 0
0.239930543933 -0.183801885956 0
0.237161342648 -0.193291646458 0
0.238617929676 -0.191139540246 0
0.24062090349 -0.186459445367 0
0.238220096434 -0.196612295587 0
0.242754241898 -0.193306262759 0
0.242888798049 -0.192925686421 0
0.240493342107 -0.188696527995 0
0.239285984421 -0.18665574397 0
0.236329253246 -0.19593183451 0
0.243636673238 -0.195950516315 0
0.241274680573 -0.182633859026 0
0.239354212517 -0.183903758431 0
0.239438051443 -0.189024259816 0
0.241440060378 -0.198742914386 0
0.24005651677 -0.180768030285 0
0.243093460918 -0.197053807204 0
0.236906939246 -0.197077501186 0
0.240928680071 -0.185262845794 0
0.238958170345 -0.185293959517 0
0.238473370391 -0.19865886515 0
0.237330815538 -0.19393854199 0
0.237641005029 -0.190994961554 0
0.237118711467 -0.195458869021 0
0.23771932848 -0.197436945176 0
0.237727151492 -0.190960641686 0
0.242347600529 -0.191111812582 0
0.242324291533 -0.196550010801 0
0.242250009293 -0.197479039616 0
0.242898531267 -0.195199818006 0
0.238582509398 -0.18238145896 0
0.237665299125 -0.19648633451 0
0.239806276433 -0.183233634324 0
0.239849593634 -0.198224139685 0
0.239826620749 -0.191746701872 0
0.241000286821 -0.18728687899 0
0.240788737921 -0.19019667803 0
0.240096222829 -0.183082640957 0
0.239144898684 -0.190201086456 0
0.243506546276 -0.195838545228 0
0.240971662614 -0.178416272726 0
0.237805424384 -0.194061552778 0
0.24214461994 -0.194077069788 0
0.239720645806 -0.19246753393 0
0.240218608345 -0.192480004474 0
0.238132221822 -0.192114411857 0
0.237027305467 -0.192976336928 0
0.240323957295 -0.179109621905 0
0.239172759976 -0.193017423244 0
0.238341727825 -0.192973658882 0
0.241605126312 -0.192984212714 0
0.236473297407 -0.195779296547 0
0.243263911002 -0.194460071299 0
0.240591885524 -0.184994675957 0
0.237810939606 -0.195197793999 0
0.24213878058 -0.195217591028 0
0.241617614896 -0.197054101527 0
0.236716457917 -0.194439814212 0
0.237162513229 -0.195762689075 0
0.242791645298 -0.195784822966 0
0.242300199448 -0.180754854416 0
0.239979242734 -0.182295710633 0
0.242906226757 -0.196935389315 0
0.237065602307 -0.196924052534 0
0.238422981957 -0.188970782873 0
0.2407572856 -0.179927350488 0
0.23998607685 -0.184292067314 0
0.239741298493 -0.179201462799 0
0.242415980346 -0.190836568472 0
0.241544378856 -0.189030919835 0
0.238801452389 -0.186870430677 0
0.238237366904 -0.179095566724 0
0.237664356729 -0.180793545409 0
0.24275272809 -0.193296946228 0
0.237146206346 -0.194753016412 0
0.242809162834 -0.194768582288 0
0.241264289491 -0.194255207697 0
0.237531256934 -0.190857396817 0
0.238943532855 -0.18660541481 0
0.239592245206 -0.184965422683 0
0.238591227607 -0.194223247717 0
0.23985963941 -0.195869638419 0
0.24196113673 -0.186937250918 0
0.237968205479 -0.186937388393 0
0.238854021607 -0.18949455287 0
0.241003690904 -0.1894586637 0
0.236439838586 -0.196454070751 0
0.243536334469 -0.19646951577 0
0.239335382422 -0.185163097276 0
0.241042170305 -0.186762452869 0
0.240184276924 -0.185230720624 0
0.241706858241 -0.195436370539 0
0.238818772756 -0.178439994275 0
0.241358481314 -0.190486940994 0
0.243305427354 -0.195880132646 0
0.236653917214 -0.195858328237 0
0.239403688067 -0.190515994345 0
0.239141630197 -0.179676516461 0
0.240536163754 -0.190521923117 0
0.239538739121 -0.184312596876 0
0.240703308111 -0.196364759561 0
0.240855346755 -0.198855846902 0
0.242269801795 -0.190937968664 0
0.238057324315 -0.189492502016 0
0.243295320862 -0.195304184342 0
0.236665038366 -0.195287188799 0
0.243196171025 -0.196144941182 0
0.236767443125 -0.196097563052 0
0.239381335002 -0.181039402805 0
0.242045493596 -0.191343113333 0
0.241882121503 -0.179150275193 0
0.240056643087 -0.177756763961 0
0.239811931323 -0.181053128789 0
0.237036425214 -0.193210348843 0
0.237912770939 -0.191488122077 0
0.238939819116 -0.193937836185 0
0.241003552171 -0.193954036767 0
0.240273127591 -0.187180985542 0
0.240334712769 -0.184046128991 0
0.239531535925 -0.177944500551 0
0.242406106413 -0.197831743477 0
0.237369084055 -0.193849867538 0
0.242566951115 -0.193864609489 0
0.24175361622 -0.189033479233 0
0.237393817155 -0.197630456316 0
0.239189742874 -0.198926362016 0
0.242841010687 -0.192489732635 0
0.238104272194 -0.195577792289 0
0.240260778478 -0.182803564685 0
0.241557279374 -0.189059241676 0
0.241718482991 -0.188650175451 0
0.240395720423 -0.184896849013 0
0.241236558895 -0.187018033615 0
0.23850668557 -0.18911870664 0
0.236851881032 -0.195170641347 0
0.241388303439 -0.180757562871 0
0.241137277303 -0.182097490708 0
0.23690529621 -0.194737762263 0
0.243051429375 -0.194768107973 0
0.238615696331 -0.194425214834 0
0.24132937479 -0.194442848367 0
0.239818261901 -0.182194193171 0
0.242283885252 -0.192628093057 0
0.242295279446 -0.193674450579 0
0.239690417769 -0.182831196736 0
0.238205632313 -0.188706352619 0
0.23950222198 -0.185787366702 0
0.237439496647 -0.192860737066 0
0.237111295345 -0.19547638024 0
0.242843348873 -0.195496670684 0
0.240246028979 -0.198416873657 0
0.240572842767 -0.186323213861 0
0.240539238001 -0.187933048656 0
0.237130253141 -0.192461934686 0
0.240498199768 -0.185743160351 0
0.238498192936 -0.180734927739 0
0.237314469259 -0.192904897611 0
0.240582235494 -0.187174224246 0
0.240884960991 -0.199062632419 0
0.242850475664 -0.182603783373 0
0.239404820958 -0.187941902547 0
0.239158877959 -0.196179302561 0
0.240132433831 -0.181044979108 0
0.239451220364 -0.186447217787 0
0.239846206215 -0.184055570348 0
0.242804804853 -0.184208684216 0
0.237031410831 -0.182604133709 0
0.239407144398 -0.187161390388 0
0.237121572947 -0.184206783947 0
0.23994825855 -0.180394600487 0
0.24010959129 -0.183993040892 0
0.240124329724 -0.178667804075 0
0.243555734373 -0.195936743161 0
0.236407638738 -0.195916102007 0
0.242746302332 -0.181148255942 0
0.242400271762 -0.180024316847 0
0.239716021682 -0.198785350031 0
0.237540309223 -0.180020948759 0
0.237183818551 -0.181185953133 0
0.24262518535 -0.186057279276 0
0.242128039463 -0.187897567487 0
0.24004609443 -0.182391123845 0
0.23730302575 -0.186057352799 0
0.237798742876 -0.187896255097 0
0.243178941705 -0.194828244548 0
0.241440557169 -0.19659616086 0
0.239802352494 -0.186888390614 0
0.240788960488 -0.177906909054 0
0.238617802057 -0.179673485261 0
0.241404530075 -0.178360567253 0
0.240645151462 -0.181232582451 0
0.242955061741 -0.193835306795 0
0.243291613964 -0.195604223047 0
0.23666786399 -0.195584711999 0
0.237662107146 -0.193599479612 0
0.243444218569 -0.195293338889 0
0.236518935567 -0.195277818713 0
0.240337694096 -0.19358918492 0
0.239305832796 -0.185587196882 0
0.24052147739 -0.198763751048 0
0.239508578857 -0.178685196343 0
0.240777225719 -0.188381029255 0
0.240497371524 -0.191709680683 0
0.239438110756 -0.191720271791 0
0.236837132328 -0.194363680136 0
0.240772002197 -0.186121480559 0
0.238301973021 -0.182948210595 0
0.240193766279 -0.183776948491 0
0.242534068699 -0.195623978107 0
0.239930752964 -0.182491965823 0
0.239167564277 -0.186030246419 0
0.241372943435 -0.179780231216 0
0.239969904983 -0.182132177461 0
0.236742313208 -0.194032047609 0
0.239061590755 -0.189751349084 0
0.239553875015 -0.179986124909 0
0.239666451986 -0.190212015033 0
0.239114458923 -0.187878782171 0
0.241867072328 -0.18427415972 0
0.240097185332 -0.190092808951 0
0.239839635688 -0.190097325514 0
0.23806488533 -0.184273832005 0
0.240259150651 -0.186070748304 0
0.240458102599 -0.179589496173 0
0.241948107458 -0.183070817424 0
0.24349207963 -0.195388166514 0
0.236479947493 -0.195348269871 0
0.23919373813 -0.199137682956 0
0.239686199778 -0.183778203197 0
0.243216598251 -0.194019421357 0
0.240215488985 -0.179748465012 0
0.238366226747 -0.178583152123 0
0.237214234421 -0.195123408802 0
0.242739336481 -0.195141944079 0
0.237594280878 -0.195626422757 0
0.242356711575 -0.195648093009 0
0.239121555775 -0.17909755615 0
0.237250451612 -0.192271852288 0
0.241689201956 -0.181965179709 0
0.243115865603 -0.195780065599 0
0.240637879029 -0.18589524733 0
0.238699124831 -0.181686492357 0
0.24312112583 -0.194379749925 0
0.237018452066 -0.195918595796 0
0.242936960663 -0.195941699178 0
0.240733941289 -0.193178121967 0
0.242016556799 -0.191550866152 0
0.241309728893 -0.18579838161 0
0.237447694781 -0.194336896812 0
0.242504563777 -0.194351877592 0
0.238515138889 -0.191563829966 0
0.239920518925 -0.182859589752 0
0.241386682576 -0.191597610502 0
0.240638704805 -0.185186568694 0
0.240635200616 -0.178524353265 0
0.23753565127 -0.191063396067 0
0.238630291298 -0.185827794488 0
0.239310332174 -0.191344654803 0
0.240630306768 -0.191353347129 0
0.241604739485 -0.193088962963 0
0.238569498909 -0.189334854021 0
0.239122282398 -0.199243341246 0
0.238203035393 -0.195034113473 0
0.241744465004 -0.195053616251 0
0.240934504885 -0.17936312241 0
0.241435617993 -0.18948666389 0
0.238493901792 -0.189486822806 0
0.239660072195 -0.184481627977 0
0.240010294474 -0.182919466243 0
0.239361348294 -0.198586881989 0
0.239400890367 -0.188671881903 0
0.238923584792 -0.191715182084 0
0.242647415489 -0.192059545493 0
0.240482727025 -0.190824913038 0
0.240543550083 -0.188731139866 0
0.240286106099 -0.184359773136 0
0.243551836627 -0.195685832962 0
0.236412886317 -0.195668657515 0
0.238864589277 -0.1878421272 0
0.238060486671 -0.193553747591 0
0.241884930017 -0.193557049569 0
0.241977647092 -0.190014334777 0
0.238636152907 -0.193367898989 0
0.241290586631 -0.193366664049 0
0.236287425738 -0.196086945024 0
0.243680839848 -0.196106216481 0
0.238732928207 -0.186958142549 0
0.24095790075 -0.197211270653 0
0.242975077044 -0.193296938678 0
0.240852503901 -0.191833985923 0
0.241396747801 -0.189421320827 0
0.239999820177 -0.182521942272 0
0.239687300464 -0.185638761504 0
0.237810405091 -0.179338906006 0
0.242035090593 -0.19268822988 0
0.243295933796 -0.194511710258 0
0.236664911907 -0.194502804306 0
0.237720567647 -0.192226254132 0
0.237976239647 -0.189998276685 0
0.240323196997 -0.184293182052 0
0.238615970463 -0.19015825068 0
0.23963400364 -0.181341652517 0
0.241574158338 -0.189911839511 0
0.240990479209 -0.189481404948 0
0.239638947586 -0.194721591608 0
0.241109877583 -0.18798018169 0
0.241903971556 -0.180526629296 0
0.241828545235 -0.18894116899 0
0.242893007011 -0.192695977177 0
0.240307728306 -0.195696275437 0
0.238279717272 -0.188522816726 0
0.239638965151 -0.187958836974 0
0.238931697336 -0.197355021674 0
0.238289640193 -0.193118110183 0
0.238573016176 -0.187630283411 0
0.239675020235 -0.183929489909 0
0.238698828587 -0.188098086912 0
0.237873276509 -0.191477962632 0
0.238017132123 -0.1805202008 0
0.237838274112 -0.181508558043 0
0.236822424216 -0.195963395883 0
0.243134842714 -0.195986633396 0
0.243630571097 -0.195906698692 0
0.236337607878 -0.195891909164 0
0.240362502182 -0.177683328139 0
0.2402687515 -0.181009113889 0
0.241347798203 -0.187635522405 0
0.23985024171 -0.182770601188 0
0.242051607295 -0.194607770539 0
0.238565242493 -0.197712080108 0
0.243069799338 -0.193471228231 0
0.240220543655 -0.183687844222 0
0.240068483481 -0.185794147732 0
0.241159676423 -0.187224458637 0
0.238478125331 -0.190148674409 0