# vtk DataFile Version 2.0
Generated with Solid Solver
ASCII
DATASET UNSTRUCTURED_GRID
POINTS 999 float 
0.2 4.325 0.0
1.4 4.325 0.0
1.4 4.825 0.0
0.2 4.825 0.0
1.4 4.34523264049 0.0
1.4 4.36751203886 0.0
1.4 4.39204525371 0.0
1.4 4.4190602782 0.0
1.4 4.44880817466 0.0
1.4 4.48156541084 0.0
1.4 4.51763640748 0.0
1.4 4.5573564007 0.0
1.4 4.60109451608 0.0
1.4 4.64925723872 0.0
1.4 4.70229217343 0.0
1.4 4.76069218095 0.0
1.33333333333 4.825 0.0
1.26666666667 4.825 0.0
1.2 4.825 0.0
1.13333333333 4.825 0.0
1.06666666667 4.825 0.0
1.0 4.825 0.0
0.933333333334 4.825 0.0
0.866666666668 4.825 0.0
0.800000000001 4.825 0.0
0.733333333334 4.825 0.0
0.666666666668 4.825 0.0
0.600000000001 4.825 0.0
0.533333333334 4.825 0.0
0.466666666667 4.825 0.0
0.4 4.825 0.0
0.333333333334 4.825 0.0
0.266666666667 4.825 0.0
0.2 4.76069218095 0.0
0.2 4.70229217343 0.0
0.2 4.64925723872 0.0
0.2 4.60109451608 0.0
0.2 4.5573564007 0.0
0.2 4.51763640748 0.0
0.2 4.48156541084 0.0
0.2 4.44880817466 0.0
0.2 4.4190602782 0.0
0.2 4.39204525371 0.0
0.2 4.36751203886 0.0
0.2 4.34523264049 0.0
0.212131543907 4.30926329506 0.0
0.224675715302 4.29385348652 0.0
0.23762369102 4.27878141198 0.0
0.250966423879 4.26405760374 0.0
0.264694484585 4.24969246611 0.0
0.278798324214 4.23569599189 0.0
0.293267939266 4.22207810803 0.0
0.308093289028 4.20884826442 0.0
0.323263842145 4.19601585877 0.0
0.338769084145 4.18358978512 0.0
0.354597997314 4.17157887342 0.0
0.37073960121 4.15999145532 0.0
0.387182441982 4.14883575334 0.0
0.403915091795 4.13811952025 0.0
0.420925712897 4.12785033813 0.0
0.438202430937 4.11803537461 0.0
0.455733079095 4.10868154223 0.0
0.473505374364 4.09979539439 0.0
0.491506842655 4.09138316882 0.0
0.509724826085 4.0834507802 0.0
0.528146580414 4.07600377808 0.0
0.546759103951 4.06904741762 0.0
0.56554943677 4.06258654322 0.0
0.584504260001 4.05662573401 0.0
0.60361041518 4.0511691282 0.0
0.622854334779 4.04622060039 0.0
0.642222678753 4.04178358113 0.0
0.661701681839 4.03786122392 0.0
0.681277836375 4.03445624851 0.0
0.700937245817 4.03157107217 0.0
0.720666255912 4.02920769845 0.0
0.740450894784 4.02736780161 0.0
0.76027736978 4.02605266363 0.0
0.780131702711 4.02526321235 0.0
0.799999999998 4.025 0.0
0.819868297285 4.02526321235 0.0
0.839722630216 4.02605266363 0.0
0.859549105212 4.02736780161 0.0
0.879333744085 4.02920769845 0.0
0.89906275418 4.03157107217 0.0
0.918722163621 4.03445624851 0.0
0.938298318157 4.03786122392 0.0
0.957777321244 4.04178358113 0.0
0.977145665218 4.04622060039 0.0
0.996389584817 4.0511691282 0.0
1.01549574 4.05662573401 0.0
1.03445056323 4.06258654322 0.0
1.05324089605 4.06904741762 0.0
1.07185341958 4.07600377808 0.0
1.09027517391 4.0834507802 0.0
1.10849315734 4.09138316882 0.0
1.12649462563 4.09979539439 0.0
1.1442669209 4.10868154222 0.0
1.16179756906 4.1180353746 0.0
1.1790742871 4.12785033813 0.0
1.1960849082 4.13811952024 0.0
1.21281755802 4.14883575334 0.0
1.22926039879 4.15999145532 0.0
1.24540200269 4.17157887342 0.0
1.26123091585 4.18358978512 0.0
1.27673615785 4.19601585877 0.0
1.29190671097 4.20884826442 0.0
1.30673206073 4.22207810803 0.0
1.32120167579 4.23569599189 0.0
1.33530551541 4.24969246611 0.0
1.34903357612 4.26405760374 0.0
1.36237630898 4.27878141198 0.0
1.3753242847 4.29385348652 0.0
1.38786845609 4.30926329506 0.0
1.05632730172 4.46025283906 0.0
0.549964048968 4.4630053958 0.0
0.806135520676 4.31186690218 0.0
0.603895783049 4.26079310371 0.0
1.22984770884 4.38318704125 0.0
0.3703382852 4.38423552752 0.0
0.995322815839 4.25565031136 0.0
0.728315816804 4.1765935937 0.0
0.872128173905 4.17288724072 0.0
1.14059401893 4.27298468684 0.0
0.461553191009 4.27181671009 0.0
0.784706775856 4.56821390922 0.0
0.398287125272 4.57945970538 0.0
1.20625306554 4.58334743514 0.0
0.624100842742 4.1589824436 0.0
0.5257453845 4.18811776279 0.0
0.978502430793 4.15488737058 0.0
1.07419209812 4.18825154482 0.0
0.364313698077 4.28677035763 0.0
1.23509538257 4.28681716733 0.0
0.68124123937 4.39284548972 0.0
1.31679378691 4.35012066749 0.0
0.283206213094 4.35012066749 0.0
0.791498533126 4.11467141721 0.0
0.931481076052 4.3801344917 0.0
0.966719065571 4.62778042839 0.0
0.684451667517 4.11068036752 0.0
0.618335406951 4.62686910993 0.0
0.450982331762 4.19686171732 0.0
0.915674266355 4.10995633851 0.0
1.14900051594 4.19689012964 0.0
1.30193709687 4.4481448133 0.0
0.298574667609 4.44816296922 0.0
1.05734787542 4.34990107617 0.0
0.539273225177 4.35252599628 0.0
0.709896798149 4.27721026287 0.0
0.895708916005 4.26924194389 0.0
0.813273511364 4.43835766235 0.0
0.559289631452 4.13230879113 0.0
1.04001407307 4.13281539633 0.0
0.801161810585 4.23146244955 0.0
0.665113819616 4.52056650186 0.0
0.852577362173 4.09111846388 0.0
0.390256727869 4.2242806298 0.0
1.20974450479 4.22428104599 0.0
0.921542541183 4.52778058719 0.0
1.14030889032 4.36437344809 0.0
1.15600477272 4.46808538305 0.0
0.435243219029 4.4750581257 0.0
0.462045157798 4.36654654286 0.0
0.735806812738 4.08472269746 0.0
1.30082934537 4.29793772796 0.0
0.299170654625 4.29793772796 0.0
0.533651712118 4.26265983853 0.0
0.666130919144 4.21652131559 0.0
1.0676097303 4.26179469382 0.0
1.08054433577 4.58530946155 0.0
0.506773767255 4.56568295079 0.0
0.626745312844 4.10124420826 0.0
0.933845304214 4.2106954732 0.0
0.293717639664 4.55175000185 0.0
0.312505022079 4.66426411351 0.0
1.3058164124 4.55154930624 0.0
1.29054387065 4.66302765963 0.0
0.973467966326 4.09941619478 0.0
0.487935413164 4.15087084015 0.0
0.461549079751 4.68836834982 0.0
1.11203248746 4.15093503889 0.0
1.14453515393 4.70617370303 0.0
0.840217564202 4.68891146633 0.0
0.585347033288 4.20539048534 0.0
0.619177396637 4.34227576306 0.0
0.331644410315 4.24962190462 0.0
1.26835558968 4.24962190462 0.0
1.01536156978 4.19987473052 0.0
0.809331033562 4.07065709122 0.0
0.982321540791 4.33437358971 0.0
0.725600576914 4.66999651799 0.0
0.812291456186 4.16642942492 0.0
0.335887692543 4.33918235669 0.0
1.26344844681 4.34017131907 0.0
1.23449730504 4.49457441524 0.0
1.34334172095 4.40539551957 0.0
0.256658279045 4.40539551957 0.0
0.741646926828 4.34287908527 0.0
0.674799084703 4.16673768522 0.0
1.18647435526 4.30955189749 0.0
0.360563250283 4.49596479569 0.0
0.873716483853 4.33845499203 0.0
0.418704489949 4.31146264283 0.0
0.492670911224 4.22931614809 0.0
0.403480880356 4.19046776931 0.0
1.19651541215 4.1904686246 0.0
0.728649253738 4.46214546491 0.0
1.00883674467 4.40174664879 0.0
1.11035034557 4.23161841276 0.0
0.261968539765 4.3130079512 0.0
1.33803146023 4.3130079512 0.0
0.74649980488 4.1318354354 0.0
0.927597725248 4.1577597079 0.0
0.892956618256 4.07619338913 0.0
0.659794281787 4.07951387326 0.0
0.587663534405 4.09486537006 0.0
0.942353209926 4.07935300973 0.0
1.01493747319 4.09476013719 0.0
0.613130017774 4.41369803882 0.0
0.449373501074 4.15377191978 0.0
0.514840228377 4.12225850006 0.0
0.497057592 4.41333092106 0.0
1.15061382426 4.15379293084 0.0
1.08514419473 4.12228328152 0.0
0.745617635771 4.23098957592 0.0
0.87523452213 4.59853036549 0.0
0.855262884783 4.2258970831 0.0
1.01126200032 4.53280064162 0.0
1.09391916408 4.40632408872 0.0
1.04436265455 4.71482000827 0.0
0.314320181089 4.38773968607 0.0
1.28649331902 4.38743720145 0.0
0.771211579291 4.06316862024 0.0
0.432259099658 4.24006002157 0.0
0.698583889427 4.07144353526 0.0
1.16802128371 4.238862881 0.0
1.09587629216 4.3086676659 0.0
1.35920470355 4.35666960471 0.0
0.240795296449 4.35666960471 0.0
0.504003580654 4.30815758118 0.0
0.579942709371 4.5342075073 0.0
0.875915224914 4.12815792528 0.0
0.426503136644 4.40717733008 0.0
0.57541416445 4.30365301522 0.0
0.683877978289 4.33161848113 0.0
0.888061695889 4.44633509246 0.0
0.26012287522 4.49859249103 0.0
1.33987712478 4.49859249103 0.0
0.801393572636 4.37060096582 0.0
0.558460082533 4.72496728209 0.0
1.1741923373 4.41132830101 0.0
0.83220012886 4.12779415912 0.0
1.02815069622 4.30053276509 0.0
0.948308583502 4.2880204454 0.0
0.846588933095 4.50834596945 0.0
0.343666800815 4.43485820652 0.0
1.25632767671 4.43480360053 0.0
0.97849585731 4.47031535602 0.0
1.10170977548 4.51507265998 0.0
0.662193131828 4.26809398492 0.0
0.400503668388 4.26881657105 0.0
1.20117145985 4.26130427377 0.0
0.350957892513 4.21796558019 0.0
1.24904210749 4.21796558019 0.0
0.771964652188 4.18905379403 0.0
0.932165148285 4.72736281402 0.0
0.373672364094 4.73321357765 0.0
0.760245937722 4.28409350779 0.0
0.848718469252 4.05767763075 0.0
1.23385612561 4.7358294747 0.0
0.846421485813 4.28065918421 0.0
0.651597058631 4.13043284014 0.0
0.650489852552 4.72138045504 0.0
0.58457834847 4.16375088261 0.0
0.48701309933 4.18859927013 0.0
0.708495738406 4.58856947756 0.0
1.11203398596 4.18878062515 0.0
0.54865558244 4.10250047869 0.0
1.05126102377 4.10234629471 0.0
0.300013757486 4.26259646442 0.0
1.29998624251 4.26259646442 0.0
0.9465032388 4.12718070354 0.0
0.708587583337 4.14146095907 0.0
0.973348904468 4.19537871864 0.0
0.628721855632 4.19538356945 0.0
0.380175010018 4.34021880077 0.0
0.662092932411 4.45899041267 0.0
1.05133526787 4.22221992007 0.0
0.528087045766 4.64327882187 0.0
1.22233124543 4.33521693908 0.0
1.19001193434 4.36273586668 0.0
0.853024099244 4.39544003492 0.0
0.542800296246 4.22324366905 0.0
0.247706318737 4.45239119247 0.0
1.35229368126 4.45239119247 0.0
0.599153768578 4.12953797005 0.0
1.01616570494 4.16227683178 0.0
0.744705786938 4.40569544575 0.0
1.31929001115 4.73702550052 0.0
0.777615355331 4.15113602511 0.0
1.33132411895 4.60631378639 0.0
0.265621610877 4.60975488866 0.0
0.532023338888 4.15374454388 0.0
1.0697792195 4.15241429251 0.0
0.286371037106 4.73010312914 0.0
0.497725885905 4.50153668256 0.0
0.46053455822 4.31587947599 0.0
0.433799237968 4.54629400991 0.0
0.388624781906 4.65094200004 0.0
0.554823673752 4.40451940232 0.0
1.1421595646 4.31818301431 0.0
1.14760043966 4.61655103139 0.0
1.21258698805 4.65320200685 0.0
1.16279096046 4.53292621409 0.0
0.995762647814 4.12508772517 0.0
0.456229040627 4.61456685246 0.0
0.707289391156 4.21520271873 0.0
0.763036833302 4.74285445535 0.0
0.78386198569 4.49787013126 0.0
[...]
POINT_DATA 999
VECTORS Displacement float
0.35730320276 -0.196208801919 0
0.362754607703 -0.196181067633 0
0.36 -0.2 0
0.36 -0.2 0
0.362990841766 -0.196164775116 0
0.363217706743 -0.196143582141 0
0.363420768703 -0.196119230191 0
0.363593220186 -0.196111856579 0
0.363698362979 -0.196131143711 0
0.363765255844 -0.196187674608 0
0.363734226652 -0.19629013782 0
0.363597955314 -0.196448300575 0
0.363340854296 -0.196703813822 0
0.362911199989 -0.19708165137 0
0.362287352765 -0.197648327009 0
0.361385788755 -0.198506266195 0
0.36 -0.2 0
0.36 -0.2 0
0.36 -0.2 0
0.36 -0.2 0
0.36 -0.2 0
0.36 -0.2 0
0.36 -0.2 0
0.36 -0.2 0
0.36 -0.2 0
0.36 -0.2 0
0.36 -0.2 0
0.36 -0.2 0
0.36 -0.2 0
0.36 -0.2 0
0.36 -0.2 0
0.36 -0.2 0
0.36 -0.2 0
0.358631824754 -0.198523863043 0
0.357737881346 -0.197671385215 0
0.357092174795 -0.19710546647 0
0.356682755846 -0.196725124936 0
0.356433973801 -0.196469489074 0
0.35630070123 -0.196312193743 0
0.356273424778 -0.196212023614 0
0.356344398968 -0.1961568451 0
0.356453288537 -0.196138406219 0
0.356629064218 -0.196146309877 0
0.356835097753 -0.196170985049 0
0.357064614069 -0.196192394164 0
0.357500318737 -0.196079378676 0
0.357717078794 -0.195934608426 0
0.357951184972 -0.195765931018 0
0.358207342569 -0.195573798302 0
0.358484415275 -0.195350015331 0
0.358774323458 -0.19508918045 0
0.359081583568 -0.194794120835 0
0.359418870124 -0.1944610421 0
0.359783100609 -0.194059874178 0
0.36015496013 -0.193622495253 0
0.360554532198 -0.193114076949 0
0.361003896052 -0.192521857032 0
0.361479847293 -0.191794346446 0
0.362011089009 -0.190887635262 0
0.362517512208 -0.189792657313 0
0.362935855628 -0.188694255689 0
0.363248141837 -0.187631731005 0
0.363477063531 -0.186582766194 0
0.363635991117 -0.185585720247 0
0.363732741312 -0.184609354437 0
0.363769090025 -0.183694598898 0
0.363744605225 -0.182788300673 0
0.363656279988 -0.182001895152 0
0.36352041871 -0.181254055397 0
0.363348193491 -0.18057047016 0
0.363129577716 -0.179938837185 0
0.36288389338 -0.179374919097 0
0.362602982147 -0.17887124108 0
0.362304626967 -0.17843356616 0
0.361973595605 -0.178053061251 0
0.361627071496 -0.17774336504 0
0.361256529664 -0.177489848513 0
0.360879134287 -0.177299167398 0
0.360488210902 -0.177164591103 0
0.360054374709 -0.177038582027 0
0.359619159811 -0.177167826461 0
0.359218703261 -0.177302313003 0
0.358836913904 -0.177490748712 0
0.358470678454 -0.177741804432 0
0.358121440826 -0.178054480124 0
0.357788837866 -0.178433346785 0
0.357478744252 -0.17887764076 0
0.357205322851 -0.179372988784 0
0.356960056008 -0.179939184865 0
0.356741522661 -0.180571764641 0
0.356567908363 -0.181254164218 0
0.35642691195 -0.181992841159 0
0.356343804356 -0.182804401222 0
0.356318287367 -0.183700847265 0
0.356357660567 -0.184619757694 0
0.356451099561 -0.185585562585 0
0.356608936596 -0.186581090802 0
0.356835946701 -0.187627896401 0
0.357150527466 -0.188694976387 0
0.357563504429 -0.189785853175 0
0.358075127291 -0.190891991135 0
0.358606578921 -0.191795927074 0
0.359078500703 -0.192515817783 0
0.359525131034 -0.193104291802 0
0.359922293083 -0.193610029866 0
0.360291953417 -0.194045255136 0
0.360654030424 -0.194444496917 0
0.360989322263 -0.194775901166 0
0.361294679769 -0.195069419976 0
0.361582737257 -0.19532877783 0
0.361857904498 -0.195551130007 0
0.362112150345 -0.195741926588 0
0.362344374804 -0.195909355024 0
0.362559312429 -0.196052907887 0
0.362414386645 -0.192456887597 0
0.357680489466 -0.19244502029 0
0.360075364235 -0.185902039966 0
0.359057174733 -0.186200833782 0
0.363180557884 -0.193941793782 0
0.356867399077 -0.193959623244 0
0.360955428086 -0.186032959871 0
0.360150518239 -0.181830287493 0
0.359901655136 -0.181721975059 0
0.361859869661 -0.190269270245 0
0.358230076747 -0.190187236508 0
0.359881008224 -0.193764475585 0
0.357173118678 -0.196286092882 0
0.362841343506 -0.196370251789 0
0.360617347535 -0.182850781765 0
0.360073670374 -0.186308651848 0
0.359377889598 -0.182798427235 0
0.360009900541 -0.186307843973 0
0.357823919328 -0.193217550668 0
0.362238479381 -0.193190134282 0
0.358888571457 -0.189037295889 0
0.363040200314 -0.195154498747 0
0.357014561824 -0.195172940086 0
0.360113162005 -0.17963746871 0
0.361255843611 -0.188772304384 0
0.3612489018 -0.195750195678 0
0.361059235376 -0.18039620676 0
0.358661492813 -0.195797057177 0
0.359735535295 -0.189278573586 0
0.359014872896 -0.180374460092 0
0.360342261495 -0.189276567344 0
0.363581543765 -0.195517168227 0
0.35646266162 -0.195529002189 0
0.362154410602 -0.189830658244 0
0.357862772745 -0.189963375371 0
0.359503726738 -0.185170066133 0
0.360551171373 -0.184971143718 0
0.360157908287 -0.189938815576 0
0.361518201743 -0.183842144391 0
0.358584570883 -0.183831811964 0
0.360039057649 -0.183281669348 0
0.358724813252 -0.192831421843 0
0.35945959773 -0.179140396156 0
0.358996027675 -0.19199258823 0
0.3610749708 -0.191988155365 0
0.361176040447 -0.192947879564 0
0.362739512956 -0.191884692383 0
0.363048381778 -0.193990277177 0
0.356941148867 -0.194232170267 0
0.357315544162 -0.191874977067 0
0.36081205053 -0.179056007798 0
0.362407840051 -0.194727186462 0
0.357653278017 -0.194744443906 0
0.358678395453 -0.187897687118 0
0.359779958777 -0.183791773525 0
0.361383473356 -0.187905978756 0
0.362195828399 -0.195473736808 0
0.357652807255 -0.19517283556 0
0.361781273674 -0.181218451633 0
0.360234045274 -0.183612724479 0
0.356624821438 -0.196480080015 0
0.357639160451 -0.197794685907 0
0.363407832839 -0.196465099819 0
0.362406805638 -0.19777118215 0
0.358267582335 -0.18117714252 0
0.361213377422 -0.186866867597 0
0.358354044144 -0.197765324491 0
0.358870155808 -0.186866991059 0
0.361502158992 -0.198096730953 0
0.360247715572 -0.196945408177 0
0.359781722092 -0.185047639811 0
0.35851495333 -0.188278591787 0
0.358478156163 -0.193896464337 0
0.361589183164 -0.193882922888 0
0.360195476338 -0.184912398535 0
0.359918953808 -0.178352218235 0
0.361510176119 -0.18807802162 0
0.359525324134 -0.196521977593 0
0.360007021946 -0.181226290168 0
0.35715132434 -0.194216802745 0
0.362912905167 -0.194196954843 0
0.363369069352 -0.195336418282 0
0.363483234741 -0.195672413605 0
0.356564773203 -0.195693112067 0
0.359530682302 -0.187052131486 0
0.360358747508 -0.182158656934 0
0.362465986874 -0.192129541238 0
0.35664373976 -0.195410492298 0
0.36064716545 -0.186999287024 0
0.357587677117 -0.192028264695 0
0.359066161203 -0.188351185402 0
0.359889168721 -0.191226275257 0
0.360188134121 -0.191223407906 0
0.359304709241 -0.19081971343 0
0.361982119733 -0.190334627322 0
0.36106046285 -0.188499934855 0
0.357446752718 -0.195409790867 0
0.362612298301 -0.195388584412 0
0.360378132378 -0.180333195022 0
0.359600988394 -0.181925735744 0
0.358820295387 -0.179129638148 0
0.36184251447 -0.179959147003 0
0.362359120822 -0.182054117653 0
0.358217172215 -0.179998715214 0
0.357695242785 -0.182128516722 0
0.358233922995 -0.190372687309 0
0.361178998552 -0.188638662683 0
0.362134922174 -0.185178857511 0
0.357337546684 -0.192123298635 0
0.358902912567 -0.188635929551 0
0.357949669895 -0.185182724037 0
0.359876305013 -0.183426709698 0
0.360644605682 -0.194681145809 0
0.360178227952 -0.183268511998 0
0.361922108522 -0.193724915207 0
0.362631888075 -0.191813751135 0
0.361106134314 -0.197955235246 0
0.356735898789 -0.194907385642 0
0.36331377081 -0.19490177806 0
0.360467910515 -0.1782097924 0
0.35869191898 -0.190648105579 0
0.361449339855 -0.179114456995 0
0.361354532398 -0.19063761498 0
0.362081876165 -0.189738962297 0
0.36311846882 -0.195720147221 0
0.35693547407 -0.195743072689 0
0.357984580628 -0.189735389217 0
0.358049476837 -0.193838764211 0
0.359533751731 -0.180405721426 0
0.356964741047 -0.193257540404 0
0.358460498411 -0.187973400527 0
0.359084163105 -0.187136534642 0
0.360909027558 -0.190422268924 0
0.356370538443 -0.196146123282 0
0.363663747184 -0.196129058447 0
0.36004009332 -0.187797664946 0
0.359001649917 -0.198142488322 0
0.363093404744 -0.193331356092 0
0.359825190175 -0.180088720301 0
0.361599075142 -0.187960922683 0
0.360976402477 -0.186190590142 0
0.360481701756 -0.192098185038 0
0.356597720456 -0.194899824688 0
0.36344656388 -0.194886290415 0
0.361758356155 -0.191817986686 0
0.36262898388 -0.194210154129 0
0.359294296717 -0.185431474519 0
0.358130697606 -0.192037020519 0
0.36180849784 -0.192011033407 0
0.359172711394 -0.193280083134 0
0.360899191435 -0.19326928815 0
0.360050206399 -0.181971206192 0
0.360584829207 -0.197968673739 0
0.358668310494 -0.198711004812 0
0.359787111652 -0.185074885646 0
0.359287329947 -0.178188916779 0
0.361312653334 -0.198754605172 0
0.360310166205 -0.184990308393 0
0.360999313184 -0.181496033768 0
0.359323345608 -0.197870752346 0
0.360618540255 -0.183929106288 0
0.360017426443 -0.187695684497 0
0.359236315344 -0.194468334309 0
0.360063460029 -0.187658210237 0
0.362543331973 -0.183477516073 0
0.357539754424 -0.183476050545 0
0.358237287459 -0.19466618981 0
0.361828426408 -0.19464890989 0
0.359036690791 -0.181374550761 0
0.360519731043 -0.180968835539 0
0.360079043286 -0.183843041727 0
0.360000634613 -0.183803200456 0
0.357212038386 -0.193301646517 0
0.358655637208 -0.191140732355 0
0.360687077198 -0.18645865946 0
0.358236550049 -0.19661448993 0
0.362804643118 -0.193295216007 0
0.36293614406 -0.192916914804 0
0.360538636506 -0.188696540841 0
0.359352990074 -0.186656862743 0
0.356367400779 -0.19595143773 0
0.363674365963 -0.195930627297 0
0.361351901255 -0.182635539043 0
0.359427808413 -0.183903899836 0
0.359482269071 -0.189024892495 0
0.361447278693 -0.198737638777 0
0.360131785562 -0.180768731592 0
0.363114274366 -0.197040919403 0
0.356927650012 -0.19709030008 0
0.361003838243 -0.185262526193 0
0.359032872093 -0.18529466823 0
0.358481230572 -0.198664284386 0
0.357362910051 -0.19394254364 0
0.357695406112 -0.190999855833 0
0.35714550783 -0.195464562995 0
0.357734728109 -0.197442049692 0
0.357771162622 -0.190963309424 0
0.362400605861 -0.191106092312 0
0.362343054089 -0.196545853218 0
0.362264965375 -0.19747382599 0
0.362926422774 -0.195193830159 0
0.358659630708 -0.182381268318 0
0.357684583646 -0.196490285773 0
0.35987375452 -0.183234762848 0
0.359856890315 -0.198224254939 0
0.359859780058 -0.191746978302 0
0.361053002886 -0.187286514112 0
0.360864050329 -0.190199301108 0
0.360164133971 -0.183082969618 0
0.359218316651 -0.190197781633 0
0.363538830345 -0.195824999752 0
0.361057468426 -0.17841611769 0
0.35786249401 -0.194075880723 0
0.36220074626 -0.194061756485 0
0.359789733408 -0.192475888435 0
0.360285969284 -0.192469125742 0
0.358167753039 -0.192116223447 0
0.357074492351 -0.192984266678 0
0.360406557146 -0.17910960967 0
0.359201466109 -0.193018098932 0
0.358402811932 -0.192984219723 0
0.361665021237 -0.192972180411 0
0.356506227261 -0.195792193719 0
0.363301133366 -0.194450750633 0
0.360655352759 -0.184994511684 0
0.357867926037 -0.195217524747 0
0.362194858881 -0.195197268638 0
0.361631704107 -0.197052029308 0
0.356753867547 -0.194448442375 0
0.357214262185 -0.195785447097 0
0.362842676147 -0.195761689744 0
0.362380590591 -0.180757187114 0
0.360048756013 -0.1822962743 0
0.362926820314 -0.196926422199 0
0.357086544049 -0.196932913193 0
0.358484454074 -0.188973370561 0
0.360837057312 -0.179928244819 0
0.360047764922 -0.184292656606 0
0.359823700381 -0.179202334447 0
0.362465167648 -0.190832364294 0
0.361604480695 -0.189027880289 0
0.358858773554 -0.186871739392 0
0.358321612326 -0.179097939883 0
0.357745120768 -0.18079440393 0
0.362788479359 -0.193292314601 0
0.357197543535 -0.194769323046 0
0.362859736293 -0.194751614243 0
0.361288626879 -0.194254225636 0
0.357581340291 -0.190861300629 0
0.359006714339 -0.186606765064 0
0.359664478117 -0.184965568741 0
0.358616245796 -0.194224477538 0
0.359876360886 -0.195869778242 0
0.362039204352 -0.18693740812 0
0.358044875994 -0.186936183804 0
0.358919333884 -0.18949753915 0
0.361068148577 -0.189454936323 0
0.356468014818 -0.196470481551 0
0.36356418818 -0.196452921099 0
0.359400349145 -0.185164341133 0
0.361104215273 -0.186761487967 0
0.360256406449 -0.185231183938 0
0.361727549975 -0.195434573517 0
0.358904782675 -0.178442444758 0
0.361398581412 -0.190486078485 0
0.363350872338 -0.195857250382 0
0.356699939234 -0.195880886795 0
0.359472299658 -0.19051990569 0
0.359222652485 -0.17967791338 0
0.36060294357 -0.190516554306 0
0.359603000974 -0.184313736475 0
0.360718301292 -0.196364267664 0
0.360860759548 -0.198854671943 0
0.362313705289 -0.190935159203 0
0.35810658706 -0.189494532729 0
0.363340121871 -0.195286249348 0
0.356710436941 -0.195304645577 0
0.36322258357 -0.196135292711 0
0.356794525025 -0.196107006599 0
0.359457623985 -0.18104018623 0
0.362102354594 -0.191336172001 0
0.361966099976 -0.179150439156 0
0.360148437299 -0.177755705783 0
0.359886411547 -0.181053818329 0
0.357075807603 -0.193215893965 0
0.357970975045 -0.191494406207 0
0.359004094396 -0.1939523291 0
0.361066548058 -0.193938303399 0
0.360324042209 -0.187181225147 0
0.360399691883 -0.184046269649 0
0.359621157255 -0.177947226351 0
0.362419743121 -0.197821589901 0
0.357422447958 -0.193862601128 0
0.362619608344 -0.193850929655 0
0.361803331056 -0.189031935636 0
0.357409373718 -0.197641251997 0
0.359194873992 -0.198927426063 0
0.3628842197 -0.192483828485 0
0.35812523985 -0.195579929684 0
0.360333298271 -0.182805028325 0
0.361604891613 -0.189058137711 0
0.361775093456 -0.188647938387 0
0.360462444903 -0.184896620272 0
0.361293961781 -0.187017224447 0
0.358553819824 -0.189120066766 0
0.356882551108 -0.19517797504 0
0.36146736173 -0.180759175897 0
0.361214145889 -0.182099356409 0
0.356953790035 -0.194753144065 0
0.363099262751 -0.194752013099 0
0.358677969363 -0.194441681751 0
0.361390485275 -0.194425427155 0
0.35988998499 -0.182194644816 0
0.362338931663 -0.192618001828 0
0.362325760884 -0.193671557256 0
0.359762460975 -0.182831389076 0
0.358262994588 -0.188708612468 0
0.359559191951 -0.185788207682 0
0.357493407117 -0.192870071665 0
0.357162495855 -0.195496937787 0
0.36289384116 -0.195475649259 0
0.360252495462 -0.198416709524 0
0.360646605974 -0.186323345971 0
0.360613008737 -0.187933769261 0
0.357174455658 -0.192467442383 0
0.360555321043 -0.185743285274 0
0.358577631571 -0.180735918626 0
0.357351845547 -0.19290883753 0
0.360649027593 -0.1871730535 0
0.360889666957 -0.199061038538 0
0.362933566282 -0.182604275194 0
0.359477598191 -0.187940454962 0
0.359174944105 -0.196179978811 0
0.360206859314 -0.181045822068 0
0.359523716572 -0.186446981524 0
0.359908933383 -0.18405632015 0
0.362884846683 -0.184204847125 0
0.35711428047 -0.182603443368 0
0.359475334698 -0.187162518984 0
0.357201795412 -0.184210356224 0
0.360025031405 -0.180395247845 0
0.360172529867 -0.183993518371 0
0.36020955136 -0.178667569224 0
0.363596617915 -0.195915018469 0
0.356449019221 -0.195937533827 0
0.362826003016 -0.181151481768 0
0.362482458834 -0.180025907301 0
0.359721132706 -0.198785571395 0
0.357623195957 -0.180022627692 0
0.357263853957 -0.181185809532 0
0.362703565791 -0.186057832415 0
0.362207445913 -0.187896267989 0
0.360117063657 -0.182392363852 0
0.357381147667 -0.186058277887 0
0.357876709988 -0.187893971239 0
0.363211597597 -0.19482033651 0
0.361455913499 -0.19659464432 0
0.359854371027 -0.186888939336 0
0.360877629926 -0.177905438568 0
0.358699745499 -0.17967520067 0
0.361490702222 -0.178360988628 0
0.360721239653 -0.181233976125 0
0.363003235244 -0.193823120232 0
0.363337012248 -0.195583836002 0
0.356713849847 -0.195604694966 0
0.357693456426 -0.193602330609 0
0.363485689714 -0.195277097386 0
0.356560957263 -0.195293607737 0
0.36036354555 -0.193589068043 0
0.359371633829 -0.185588391761 0
0.360526762145 -0.198763284366 0
0.359593659184 -0.178686897074 0
0.360824323864 -0.188380847875 0
0.360571168921 -0.191713742978 0
0.359509335067 -0.191712032772 0
0.356884105677 -0.194376673684 0
0.36082897385 -0.186121342728 0
0.358380124259 -0.182948089224 0
0.360265862369 -0.183778180987 0
0.362557584772 -0.195619638389 0
0.35999979245 -0.182492913046 0
0.359225529624 -0.18603132938 0
0.361454346423 -0.179781116832 0
0.360039705144 -0.182132850691 0
0.356783995989 -0.194041295878 0
0.359103692633 -0.189752191072 0
0.359632977779 -0.179987152103 0
0.359705722659 -0.190212452724 0
0.359164151411 -0.187879694292 0
0.361945516227 -0.184272440845 0
0.360169453605 -0.190095681895 0
0.35991003344 -0.190093391353 0
0.358143130379 -0.184275692893 0
0.360314319018 -0.186071050819 0
0.360538571295 -0.179589962333 0
0.362027807309 -0.183070941521 0
0.36352763525 -0.195375206703 0
0.356516382132 -0.195360955553 0
0.35919808681 -0.199139056513 0
0.359758028206 -0.183778215715 0
0.363257694738 -0.194009673551 0
0.360295102849 -0.17974889021 0
0.358451983186 -0.178585613832 0
0.357266349482 -0.195141932082 0
0.362790705732 -0.19512284088 0
0.357649657598 -0.195648570157 0
0.362411245246 -0.19562551211 0
0.359204787231 -0.179099314571 0
0.357300932135 -0.192278766438 0
0.361767673199 -0.181967480186 0
0.363143037548 -0.195771978014 0
0.360703372154 -0.185894692574 0
0.358776465698 -0.181686802934 0
0.363167431371 -0.194366073237 0
0.357068807747 -0.195942507949 0
0.362986640042 -0.195917466152 0
0.36076172358 -0.193177725152 0
0.362055052196 -0.191548854805 0
0.361385811754 -0.185797976837 0
0.357501918912 -0.194351911357 0
0.362557950555 -0.194336033188 0
0.358577979594 -0.19157028029 0
0.35998771546 -0.182860384016 0
0.361448343972 -0.191589552531 0
0.360700118194 -0.185186475129 0
0.360720542566 -0.178523838016 0
0.35758187897 -0.191066782763 0
0.358705735497 -0.185828481406 0
0.359378063817 -0.191349991409 0
0.36069622413 -0.191345881123 0
0.361634722266 -0.193087612248 0
0.358632609577 -0.189337818261 0
0.359126371548 -0.199245985367 0
0.358262675268 -0.195053241494 0
0.361803076166 -0.1950338189 0
0.361016523483 -0.179363804628 0
0.36151145055 -0.189489509606 0
0.358570934041 -0.189486166922 0
0.35972186353 -0.18448252459 0
0.36008078621 -0.182920800954 0
0.359367512805 -0.198587471587 0
0.359469474116 -0.188673799795 0
0.358958013671 -0.191716075905 0
0.362697518628 -0.192052330436 0
0.3605196308 -0.190824820816 0
0.360610835951 -0.188728553237 0
0.360348306228 -0.18436006597 0
0.363591577482 -0.195667545299 0
0.35645312833 -0.195686582663 0
0.358929101493 -0.187843836079 0
0.358119524463 -0.193566250563 0
0.36194294154 -0.193543368758 0
0.362034020336 -0.190010156107 0
0.358698893111 -0.193379978273 0
0.361352214487 -0.193353159285 0
0.356322884913 -0.196106682445 0
0.363715885759 -0.196086238635 0
0.358791716778 -0.186959543324 0
0.360969881582 -0.197210421941 0
0.363014161538 -0.193290610811 0
0.360885829226 -0.191833559543 0
0.361458411632 -0.18941761081 0
0.360069059253 -0.182522410229 0
0.359756654717 -0.185639620153 0
0.357894397275 -0.179341434262 0
0.362068516934 -0.19268611638 0
0.363338276613 -0.19449926006 0
0.356707838318 -0.194514684735 0
0.357777138884 -0.192234190479 0
0.358033818124 -0.190001908963 0
0.360389878054 -0.184293124137 0
0.358657828077 -0.190159452672 0
0.359708488209 -0.181342310092 0
0.361617765832 -0.189910703286 0
0.361033685934 -0.189480977561 0
0.359660366722 -0.194721905603 0
0.361173089921 -0.187978222236 0
0.36198431534 -0.180528435254 0
0.361880555423 -0.188939279595 0
0.362938682103 -0.19268852978 0
0.36032515263 -0.195696111736 0
0.358332924227 -0.188524601098 0
0.359687060601 -0.18795941016 0
0.358943405732 -0.19735602561 0
0.358320144286 -0.193119695847 0
0.358633319922 -0.187631977271 0
0.359739460732 -0.183930514621 0
0.358749749003 -0.18809933229 0
0.357913077534 -0.191480193061 0
0.358097939019 -0.180521338617 0
0.357917759992 -0.181508394324 0
0.356870717305 -0.195987509708 0
0.363182514152 -0.195962219722 0
0.36366599218 -0.195889428198 0
0.356373474364 -0.195908883661 0
0.360453730338 -0.17767962962 0
0.36034383663 -0.181010108463 0
0.361424504933 -0.187635445604 0
0.359921196032 -0.182770880284 0
0.362076964078 -0.194605352716 0
0.358576413757 -0.197713920802 0
0.363114076345 -0.193461935709 0
0.36028574455 -0.183688140502 0
0.360138144317 -0.185793885561 0
0.36121399924 -0.187223879651 0
0.358540812792 -0.190152637697 0
0.359216795523 -0.181104028661 0