# vtk DataFile Version 2.0
Generated with Solid Solver
ASCII
DATASET UNSTRUCTURED_GRID
POINTS 999 float 
0.2 4.325 0.0
1.4 4.325 0.0
1.4 4.825 0.0
0.2 4.825 0.0
1.4 4.34523264049 0.0
1.4 4.36751203886 0.0
1.4 4.39204525371 0.0
1.4 4.4190602782 0.0
1.4 4.44880817466 0.0
1.4 4.48156541084 0.0
1.4 4.51763640748 0.0
1.4 4.5573564007 0.0
1.4 4.60109451608 0.0
1.4 4.64925723872 0.0
1.4 4.70229217343 0.0
1.4 4.76069218095 0.0
1.33333333333 4.825 0.0
1.26666666667 4.825 0.0
1.2 4.825 0.0
1.13333333333 4.825 0.0
1.06666666667 4.825 0.0
1.0 4.825 0.0
0.933333333334 4.825 0.0
0.866666666668 4.825 0.0
0.800000000001 4.825 0.0
0.733333333334 4.825 0.0
0.666666666668 4.825 0.0
0.600000000001 4.825 0.0
0.533333333334 4.825 0.0
0.466666666667 4.825 0.0
0.4 4.825 0.0
0.333333333334 4.825 0.0
0.266666666667 4.825 0.0
0.2 4.76069218095 0.0
0.2 4.70229217343 0.0
0.2 4.64925723872 0.0
0.2 4.60109451608 0.0
0.2 4.5573564007 0.0
0.2 4.51763640748 0.0
0.2 4.48156541084 0.0
0.2 4.44880817466 0.0
0.2 4.4190602782 0.0
0.2 4.39204525371 0.0
0.2 4.36751203886 0.0
0.2 4.34523264049 0.0
0.212131543907 4.30926329506 0.0
0.224675715302 4.29385348652 0.0
0.23762369102 4.27878141198 0.0
0.250966423879 4.26405760374 0.0
0.264694484585 4.24969246611 0.0
0.278798324214 4.23569599189 0.0
0.293267939266 4.22207810803 0.0
0.308093289028 4.20884826442 0.0
0.323263842145 4.19601585877 0.0
0.338769084145 4.18358978512 0.0
0.354597997314 4.17157887342 0.0
0.37073960121 4.15999145532 0.0
0.387182441982 4.14883575334 0.0
0.403915091795 4.13811952025 0.0
0.420925712897 4.12785033813 0.0
0.438202430937 4.11803537461 0.0
0.455733079095 4.10868154223 0.0
0.473505374364 4.09979539439 0.0
0.491506842655 4.09138316882 0.0
0.509724826085 4.0834507802 0.0
0.528146580414 4.07600377808 0.0
0.546759103951 4.06904741762 0.0
0.56554943677 4.06258654322 0.0
0.584504260001 4.05662573401 0.0
0.60361041518 4.0511691282 0.0
0.622854334779 4.04622060039 0.0
0.642222678753 4.04178358113 0.0
0.661701681839 4.03786122392 0.0
0.681277836375 4.03445624851 0.0
0.700937245817 4.03157107217 0.0
0.720666255912 4.02920769845 0.0
0.740450894784 4.02736780161 0.0
0.76027736978 4.02605266363 0.0
0.780131702711 4.02526321235 0.0
0.799999999998 4.025 0.0
0.819868297285 4.02526321235 0.0
0.839722630216 4.02605266363 0.0
0.859549105212 4.02736780161 0.0
0.879333744085 4.02920769845 0.0
0.89906275418 4.03157107217 0.0
0.918722163621 4.03445624851 0.0
0.938298318157 4.03786122392 0.0
0.957777321244 4.04178358113 0.0
0.977145665218 4.04622060039 0.0
0.996389584817 4.0511691282 0.0
1.01549574 4.05662573401 0.0
1.03445056323 4.06258654322 0.0
1.05324089605 4.06904741762 0.0
1.07185341958 4.07600377808 0.0
1.09027517391 4.0834507802 0.0
1.10849315734 4.09138316882 0.0
1.12649462563 4.09979539439 0.0
1.1442669209 4.10868154222 0.0
1.16179756906 4.1180353746 0.0
1.1790742871 4.12785033813 0.0
1.1960849082 4.13811952024 0.0
1.21281755802 4.14883575334 0.0
1.22926039879 4.15999145532 0.0
1.24540200269 4.17157887342 0.0
1.26123091585 4.18358978512 0.0
1.27673615785 4.19601585877 0.0
1.29190671097 4.20884826442 0.0
1.30673206073 4.22207810803 0.0
1.32120167579 4.23569599189 0.0
1.33530551541 4.24969246611 0.0
1.34903357612 4.26405760374 0.0
1.36237630898 4.27878141198 0.0
1.3753242847 4.29385348652 0.0
1.38786845609 4.30926329506 0.0
1.05632730172 4.46025283906 0.0
0.549964048968 4.4630053958 0.0
0.806135520676 4.31186690218 0.0
0.603895783049 4.26079310371 0.0
1.22984770884 4.38318704125 0.0
0.3703382852 4.38423552752 0.0
0.995322815839 4.25565031136 0.0
0.728315816804 4.1765935937 0.0
0.872128173905 4.17288724072 0.0
1.14059401893 4.27298468684 0.0
0.461553191009 4.27181671009 0.0
0.784706775856 4.56821390922 0.0
0.398287125272 4.57945970538 0.0
1.20625306554 4.58334743514 0.0
0.624100842742 4.1589824436 0.0
0.5257453845 4.18811776279 0.0
0.978502430793 4.15488737058 0.0
1.07419209812 4.18825154482 0.0
0.364313698077 4.28677035763 0.0
1.23509538257 4.28681716733 0.0
0.68124123937 4.39284548972 0.0
1.31679378691 4.35012066749 0.0
0.283206213094 4.35012066749 0.0
0.791498533126 4.11467141721 0.0
0.931481076052 4.3801344917 0.0
0.966719065571 4.62778042839 0.0
0.684451667517 4.11068036752 0.0
0.618335406951 4.62686910993 0.0
0.450982331762 4.19686171732 0.0
0.915674266355 4.10995633851 0.0
1.14900051594 4.19689012964 0.0
1.30193709687 4.4481448133 0.0
0.298574667609 4.44816296922 0.0
1.05734787542 4.34990107617 0.0
0.539273225177 4.35252599628 0.0
0.709896798149 4.27721026287 0.0
0.895708916005 4.26924194389 0.0
0.813273511364 4.43835766235 0.0
0.559289631452 4.13230879113 0.0
1.04001407307 4.13281539633 0.0
0.801161810585 4.23146244955 0.0
0.665113819616 4.52056650186 0.0
0.852577362173 4.09111846388 0.0
0.390256727869 4.2242806298 0.0
1.20974450479 4.22428104599 0.0
0.921542541183 4.52778058719 0.0
1.14030889032 4.36437344809 0.0
1.15600477272 4.46808538305 0.0
0.435243219029 4.4750581257 0.0
0.462045157798 4.36654654286 0.0
0.735806812738 4.08472269746 0.0
1.30082934537 4.29793772796 0.0
0.299170654625 4.29793772796 0.0
0.533651712118 4.26265983853 0.0
0.666130919144 4.21652131559 0.0
1.0676097303 4.26179469382 0.0
1.08054433577 4.58530946155 0.0
0.506773767255 4.56568295079 0.0
0.626745312844 4.10124420826 0.0
0.933845304214 4.2106954732 0.0
0.293717639664 4.55175000185 0.0
0.312505022079 4.66426411351 0.0
1.3058164124 4.55154930624 0.0
1.29054387065 4.66302765963 0.0
0.973467966326 4.09941619478 0.0
0.487935413164 4.15087084015 0.0
0.461549079751 4.68836834982 0.0
1.11203248746 4.15093503889 0.0
1.14453515393 4.70617370303 0.0
0.840217564202 4.68891146633 0.0
0.585347033288 4.20539048534 0.0
0.619177396637 4.34227576306 0.0
0.331644410315 4.24962190462 0.0
1.26835558968 4.24962190462 0.0
1.01536156978 4.19987473052 0.0
0.809331033562 4.07065709122 0.0
0.982321540791 4.33437358971 0.0
0.725600576914 4.66999651799 0.0
0.812291456186 4.16642942492 0.0
0.335887692543 4.33918235669 0.0
1.26344844681 4.34017131907 0.0
1.23449730504 4.49457441524 0.0
1.34334172095 4.40539551957 0.0
0.256658279045 4.40539551957 0.0
0.741646926828 4.34287908527 0.0
0.674799084703 4.16673768522 0.0
1.18647435526 4.30955189749 0.0
0.360563250283 4.49596479569 0.0
0.873716483853 4.33845499203 0.0
0.418704489949 4.31146264283 0.0
0.492670911224 4.22931614809 0.0
0.403480880356 4.19046776931 0.0
1.19651541215 4.1904686246 0.0
0.728649253738 4.46214546491 0.0
1.00883674467 4.40174664879 0.0
1.11035034557 4.23161841276 0.0
0.261968539765 4.3130079512 0.0
1.33803146023 4.3130079512 0.0
0.74649980488 4.1318354354 0.0
0.927597725248 4.1577597079 0.0
0.892956618256 4.07619338913 0.0
0.659794281787 4.07951387326 0.0
0.587663534405 4.09486537006 0.0
0.942353209926 4.07935300973 0.0
1.01493747319 4.09476013719 0.0
0.613130017774 4.41369803882 0.0
0.449373501074 4.15377191978 0.0
0.514840228377 4.12225850006 0.0
0.497057592 4.41333092106 0.0
1.15061382426 4.15379293084 0.0
1.08514419473 4.12228328152 0.0
0.745617635771 4.23098957592 0.0
0.87523452213 4.59853036549 0.0
0.855262884783 4.2258970831 0.0
1.01126200032 4.53280064162 0.0
1.09391916408 4.40632408872 0.0
1.04436265455 4.71482000827 0.0
0.314320181089 4.38773968607 0.0
1.28649331902 4.38743720145 0.0
0.771211579291 4.06316862024 0.0
0.432259099658 4.24006002157 0.0
0.698583889427 4.07144353526 0.0
1.16802128371 4.238862881 0.0
1.09587629216 4.3086676659 0.0
1.35920470355 4.35666960471 0.0
0.240795296449 4.35666960471 0.0
0.504003580654 4.30815758118 0.0
0.579942709371 4.5342075073 0.0
0.875915224914 4.12815792528 0.0
0.426503136644 4.40717733008 0.0
0.57541416445 4.30365301522 0.0
0.683877978289 4.33161848113 0.0
0.888061695889 4.44633509246 0.0
0.26012287522 4.49859249103 0.0
1.33987712478 4.49859249103 0.0
0.801393572636 4.37060096582 0.0
0.558460082533 4.72496728209 0.0
1.1741923373 4.41132830101 0.0
0.83220012886 4.12779415912 0.0
1.02815069622 4.30053276509 0.0
0.948308583502 4.2880204454 0.0
0.846588933095 4.50834596945 0.0
0.343666800815 4.43485820652 0.0
1.25632767671 4.43480360053 0.0
0.97849585731 4.47031535602 0.0
1.10170977548 4.51507265998 0.0
0.662193131828 4.26809398492 0.0
0.400503668388 4.26881657105 0.0
1.20117145985 4.26130427377 0.0
0.350957892513 4.21796558019 0.0
1.24904210749 4.21796558019 0.0
0.771964652188 4.18905379403 0.0
0.932165148285 4.72736281402 0.0
0.373672364094 4.73321357765 0.0
0.760245937722 4.28409350779 0.0
0.848718469252 4.05767763075 0.0
1.23385612561 4.7358294747 0.0
0.846421485813 4.28065918421 0.0
0.651597058631 4.13043284014 0.0
0.650489852552 4.72138045504 0.0
0.58457834847 4.16375088261 0.0
0.48701309933 4.18859927013 0.0
0.708495738406 4.58856947756 0.0
1.11203398596 4.18878062515 0.0
0.54865558244 4.10250047869 0.0
1.05126102377 4.10234629471 0.0
0.300013757486 4.26259646442 0.0
1.29998624251 4.26259646442 0.0
0.9465032388 4.12718070354 0.0
0.708587583337 4.14146095907 0.0
0.973348904468 4.19537871864 0.0
0.628721855632 4.19538356945 0.0
0.380175010018 4.34021880077 0.0
0.662092932411 4.45899041267 0.0
1.05133526787 4.22221992007 0.0
0.528087045766 4.64327882187 0.0
1.22233124543 4.33521693908 0.0
1.19001193434 4.36273586668 0.0
0.853024099244 4.39544003492 0.0
0.542800296246 4.22324366905 0.0
0.247706318737 4.45239119247 0.0
1.35229368126 4.45239119247 0.0
0.599153768578 4.12953797005 0.0
1.01616570494 4.16227683178 0.0
0.744705786938 4.40569544575 0.0
1.31929001115 4.73702550052 0.0
0.777615355331 4.15113602511 0.0
1.33132411895 4.60631378639 0.0
0.265621610877 4.60975488866 0.0
0.532023338888 4.15374454388 0.0
1.0697792195 4.15241429251 0.0
0.286371037106 4.73010312914 0.0
0.497725885905 4.50153668256 0.0
0.46053455822 4.31587947599 0.0
0.433799237968 4.54629400991 0.0
0.388624781906 4.65094200004 0.0
0.554823673752 4.40451940232 0.0
1.1421595646 4.31818301431 0.0
1.14760043966 4.61655103139 0.0
1.21258698805 4.65320200685 0.0
1.16279096046 4.53292621409 0.0
0.995762647814 4.12508772517 0.0
0.456229040627 4.61456685246 0.0
0.707289391156 4.21520271873 0.0
0.763036833302 4.74285445535 0.0
0.78386198569 4.49787013126 0.0
[...]
POINT_DATA 999
VECTORS Displacement float
0.599860805108 -0.0398660469573 0
0.600135094291 -0.0398688719531 0
0.6 -0.04 0
0.6 -0.04 0
0.600142132839 -0.0398681847501 0
0.600149007864 -0.0398671266114 0
0.600155124239 -0.0398657263408 0
0.600160118121 -0.0398645931873 0
0.600162643755 -0.039864117102 0
0.600163600102 -0.0398646935615 0
0.600160670269 -0.0398666928906 0
0.600153424609 -0.0398705627248 0
0.600141161317 -0.0398780346243 0
0.600121811346 -0.0398902936497 0
0.600094580407 -0.0399101505426 0
0.600056361586 -0.0399421772106 0
0.6 -0.04 0
0.6 -0.04 0
0.6 -0.04 0
0.6 -0.04 0
0.6 -0.04 0
0.6 -0.04 0
0.6 -0.04 0
0.6 -0.04 0
0.6 -0.04 0
0.6 -0.04 0
0.6 -0.04 0
0.6 -0.04 0
0.6 -0.04 0
0.6 -0.04 0
0.6 -0.04 0
0.6 -0.04 0
0.6 -0.04 0
0.599943453579 -0.0399418033118 0
0.599904804806 -0.0399093868152 0
0.599876097588 -0.0398889617019 0
0.599856950498 -0.0398761440709 0
0.59984445413 -0.039868362155 0
0.599836804453 -0.0398642904199 0
0.599833556953 -0.0398621967973 0
0.599834249701 -0.0398615263884 0
0.599836535289 -0.0398619227239 0
0.599841309397 -0.0398629902038 0
0.599847223194 -0.0398643442335 0
0.599853918346 -0.0398653731107 0
0.599866467359 -0.0398625609781 0
0.599872714495 -0.0398587816955 0
0.599879525761 -0.0398543950574 0
0.599887014264 -0.0398493833558 0
0.59989510806 -0.0398435372028 0
0.599903604695 -0.0398367088205 0
0.599912555509 -0.0398290308172 0
0.599922261065 -0.0398203999514 0
0.599932504367 -0.0398102627726 0
0.599942899957 -0.0397993683089 0
0.599953834545 -0.0397870758932 0
0.599965455241 -0.0397734614485 0
0.599977249395 -0.0397581832549 0
0.599989550176 -0.039741442517 0
0.60000220688 -0.0397230342368 0
0.60001533022 -0.039702691222 0
0.600028574242 -0.0396802512646 0
0.600042570178 -0.0396556965417 0
0.600056540929 -0.0396285081474 0
0.60007120164 -0.0395984070019 0
0.600085582329 -0.0395652382282 0
0.600101119235 -0.0395285326978 0
0.600116090022 -0.0394873341987 0
0.600132056423 -0.0394414812055 0
0.600147805471 -0.0393897941345 0
0.600165425592 -0.039330162116 0
0.600181115789 -0.0392617772946 0
0.600199394292 -0.0391786496759 0
0.600213047916 -0.0390789718189 0
0.600229093921 -0.0389446351555 0
0.600232555882 -0.038730382162 0
0.600199607598 -0.0385504817767 0
0.600146408795 -0.038419972498 0
0.60008010724 -0.0383409382932 0
0.599992892492 -0.0383110321 0
0.599913546972 -0.0383403649579 0
0.599841519069 -0.038422540123 0
0.599786750471 -0.0385535214437 0
0.599755322416 -0.0387324679161 0
0.599763794281 -0.0389518359782 0
0.599777252913 -0.0390813165436 0
0.599796039417 -0.0391809873002 0
0.599811744005 -0.0392635771866 0
0.599827699847 -0.0393319863536 0
0.599845389336 -0.0393915552112 0
0.599861210182 -0.0394433368068 0
0.599877347033 -0.0394892229722 0
0.599892499123 -0.0395302246614 0
0.599908031648 -0.0395668366968 0
0.599922470224 -0.0396000486569 0
0.599937185604 -0.0396302140876 0
0.599951253299 -0.0396574856594 0
0.599965369733 -0.0396821215644 0
0.599978740732 -0.0397046268233 0
0.599991987771 -0.0397250274703 0
0.600004764824 -0.0397434892352 0
0.600017181228 -0.0397602837779 0
0.600029089666 -0.0397756190427 0
0.600040825383 -0.039789293926 0
0.600051878777 -0.0398016468364 0
0.600062396055 -0.0398125997496 0
0.600072756856 -0.0398227882018 0
0.600082575856 -0.0398314662625 0
0.600091636628 -0.0398391912523 0
0.600100243693 -0.0398460683597 0
0.600108445351 -0.0398519638908 0
0.600116041826 -0.0398570284899 0
0.600122961902 -0.0398614713503 0
0.600129318282 -0.0398653129224 0
0.600129367709 -0.0397148824921 0
0.599870303108 -0.039711644627 0
0.600003240522 -0.0393260775506 0
0.599877519082 -0.0394667610702 0
0.600151962227 -0.039799172294 0
0.59984455739 -0.0397975075083 0
0.600116855192 -0.0394618445356 0
0.599924962466 -0.0390633936927 0
0.600068556688 -0.0390570195638 0
0.600119466486 -0.0396926967131 0
0.599876411469 -0.0396879767517 0
0.599991700964 -0.039735525891 0
0.59986943625 -0.0398664650692 0
0.600127970929 -0.0398708564983 0
0.599925685326 -0.0393435012964 0
0.599924711277 -0.0395755664086 0
0.600062968946 -0.0393508182381 0
0.600070036588 -0.0395771490198 0
0.599874325545 -0.0397837084073 0
0.600121268194 -0.0397852831246 0
0.599913631686 -0.0395289494949 0
0.6001444382 -0.0398390622881 0
0.599851712686 -0.0398367673009 0
0.599987947896 -0.0387374797711 0
0.600091873183 -0.0395225061901 0
0.600062598359 -0.0398294952415 0
0.599956381061 -0.0390900670181 0
0.599930965766 -0.0398320809887 0
0.599927914103 -0.0396886902816 0
0.600035832652 -0.0390926415039 0
0.600066865512 -0.0396905607787 0
0.600160374722 -0.0398470810287 0
0.599836676231 -0.0398450496845 0
0.600136861313 -0.0396288216387 0
0.599859032855 -0.0396332191891 0
0.599917945984 -0.0393125584021 0
0.600082153827 -0.0393064543043 0
0.60000834069 -0.0395542825369 0
0.599982084255 -0.0395022236276 0
0.600012394243 -0.0395021604514 0
0.599998369937 -0.0391361095695 0
0.59992547482 -0.0397032968311 0
0.600020985573 -0.0387469530995 0
0.599910185851 -0.0397567955022 0
0.600084846392 -0.0397588574809 0
0.600064825266 -0.0397069745809 0
0.600146094774 -0.0397245716776 0
0.600147295385 -0.0397880922537 0
0.599849444637 -0.039795390283 0
0.599850378802 -0.0397216657886 0
0.599977431781 -0.0387779846944 0
0.600124998396 -0.0398285414319 0
0.59987071014 -0.0398262178269 0
0.599875865944 -0.0395868165749 0
0.599894791564 -0.0392893901781 0
0.60011900491 -0.039590166349 0
0.600106006537 -0.0398291134304 0
0.599883524025 -0.0398184931695 0
0.600009162888 -0.0393167454169 0
0.600098968805 -0.0392829508531 0
0.599849594992 -0.0398742488648 0
0.599896683139 -0.0399197906364 0
0.600148440501 -0.0398757347387 0
0.600103361373 -0.0399200783774 0
0.599980072854 -0.0393189844427 0
0.599971343184 -0.0396346574542 0
0.599923480313 -0.0399168527507 0
0.600022937606 -0.039636415378 0
0.600068155235 -0.0399297246086 0
0.600012025526 -0.0398740929078 0
0.599898738192 -0.0394640207735 0
0.599877674928 -0.0395273488021 0
0.599895347438 -0.0398048171008 0
0.600099962451 -0.0398070769795 0
0.600091815806 -0.0394639914063 0
0.599994948315 -0.0385321267473 0
0.600119175029 -0.039521884934 0
0.599974640065 -0.0398568126062 0
0.600011322768 -0.0389413053226 0
0.599854456301 -0.0398092502293 0
0.60014191982 -0.0398110649439 0
0.600152897191 -0.0398386505756 0
0.600157534747 -0.0398526088323 0
0.599839061205 -0.0398503149865 0
0.599949443337 -0.0394058182202 0
0.599910071095 -0.0391968872978 0
0.600132796421 -0.0397485031977 0
0.599844032596 -0.0398395071102 0
0.60005958658 -0.0394088966025 0
0.599862154595 -0.039742508172 0
0.59989731948 -0.039637128386 0
0.599936863838 -0.0397424139191 0
0.600057875956 -0.0397444180611 0
0.599952527747 -0.0396029389217 0
0.600122962465 -0.0396214285091 0
0.600098854205 -0.0396436543212 0
0.599864800255 -0.0398442191497 0
0.600131017921 -0.0398466902335 0
0.599945292114 -0.0388897003219 0
0.600079308792 -0.0391945748266 0
0.599985847528 -0.0389309510391 0
0.600041114754 -0.0391875174819 0
0.600040297432 -0.0394331141129 0
0.599949755151 -0.0391987327538 0
0.599952554404 -0.0394416670609 0
0.599883598032 -0.0396130179463 0
0.599971453167 -0.0396889428918 0
0.600006492078 -0.0395899352465 0
0.59985278043 -0.0397161939423 0
0.600022906784 -0.0396908257286 0
0.599987313462 -0.0395915450961 0
0.599942303739 -0.0391689626253 0
0.600033315706 -0.0397781763742 0
0.600054553565 -0.0391585909906 0
0.600100252703 -0.0397532368253 0
0.600142757017 -0.0397051020075 0
0.600052447673 -0.0399213673068 0
0.599842881972 -0.0398277648305 0
0.600153593944 -0.0398301170115 0
0.600008940708 -0.0385359341407 0
0.599896543053 -0.0397155468069 0
0.600027796613 -0.0389764073451 0
0.600097683038 -0.0397175538848 0
0.600133686949 -0.0396506178752 0
0.600146302408 -0.039855079488 0
0.599849863098 -0.0398525647356 0
0.599862077176 -0.0396490968349 0
0.599895406848 -0.0397585096186 0
0.600059255829 -0.0389555207234 0
0.599844805638 -0.0397682702433 0
0.599867369252 -0.0395495318902 0
0.599907094287 -0.0394361039994 0
0.600057790115 -0.0395870483994 0
0.599837228967 -0.0398627399008 0
0.600160072302 -0.0398647509194 0
0.599999638673 -0.0394397980522 0
0.599951729625 -0.0399281194614 0
0.600151934402 -0.0397723165634 0
0.600031269061 -0.0388228528876 0
0.600128406373 -0.0395536780352 0
0.600107992057 -0.0394163385156 0
0.600026862028 -0.039660654358 0
0.599839126338 -0.0398252907273 0
0.600157858762 -0.0398270125971 0
0.600100884318 -0.0396699309746 0
0.600129535749 -0.0397861852598 0
0.599891068191 -0.0393709978689 0
0.59988181258 -0.0397512981603 0
0.600109373388 -0.0397538824926 0
0.599915963759 -0.0397900697289 0
0.600079079506 -0.0397922797998 0
0.599965598699 -0.0390248222479 0
0.600028704556 -0.0399184382464 0
0.599940959237 -0.0399528774665 0
0.599959707248 -0.0392783265175 0
0.599957666919 -0.0385971987088 0
0.60005711321 -0.0399550091401 0
0.600042039997 -0.0392761842841 0
0.599946275684 -0.0392382698036 0
0.599965830223 -0.0399148676417 0
0.599933950883 -0.0394487514266 0
0.599930849525 -0.0396385199435 0
0.599957326835 -0.0397698284371 0
0.600064021832 -0.0396390446449 0
0.600034475427 -0.0395246791181 0
0.59995901305 -0.0395261421802 0
0.599888132133 -0.0398249875048 0
0.600107297064 -0.0398273546246 0
0.600042898312 -0.0392327708057 0
0.599925562609 -0.0390404478478 0
0.600095502748 -0.0393634393552 0
0.599898662143 -0.0393568849368 0
0.599853905866 -0.0397804764243 0
0.59991397636 -0.0396301969284 0
0.600100503977 -0.0395458996399 0
0.599914137303 -0.0398705201467 0
0.600140757086 -0.0397830581301 0
0.600147345304 -0.0397657767252 0
0.600038973341 -0.0394943065397 0
0.59989463044 -0.0395551108595 0
0.599834634317 -0.0398569482519 0
0.600162332003 -0.0398591549583 0
0.599971938007 -0.039404035024 0
0.600058395078 -0.0394520236977 0
0.599957547202 -0.0395114468976 0
0.600060853923 -0.0399537441762 0
0.599971938051 -0.0388938622658 0
0.600133377396 -0.0398938089421 0
0.59986596975 -0.0398935292935 0
0.599960005237 -0.0395596850108 0
0.600032015893 -0.0395644713973 0
0.599934905182 -0.0399504335022 0
0.599865096154 -0.0397758358429 0
0.599860142321 -0.0397024933986 0
0.599864106343 -0.0398361400609 0
0.59989758613 -0.0399072190148 0
0.5998638927 -0.0396577234546 0
0.600136456371 -0.0397077947982 0
0.600107868513 -0.0398736624251 0
0.600100393738 -0.0399092865718 0
0.600136821255 -0.0398278873043 0
0.600016595668 -0.0393912723577 0
0.599890780291 -0.0398706156919 0
0.599911424677 -0.0391970334177 0
0.599992304684 -0.0399274328211 0
0.599989368946 -0.0396428129938 0
0.600093689662 -0.0394487533081 0
0.59996339772 -0.0397239609016 0
0.600082795821 -0.0391878710935 0
0.600031085072 -0.0397259375419 0
0.600156842574 -0.0398556619228 0
0.600036031673 -0.038711835332 0
0.599876673344 -0.0398081906728 0
0.600118911188 -0.0398104085023 0
0.599933802311 -0.0397713956243 0
0.600061014743 -0.0397735259054 0
0.599892434832 -0.039684798274 0
0.599847734217 -0.0397646861853 0
0.599976316054 -0.0386915836307 0
0.599952574951 -0.0397056387373 0
0.599892541996 -0.0397801446967 0
0.60010278047 -0.03978220823 0
0.599840541745 -0.0398526599713 0
0.60015457404 -0.0398096941974 0
0.600108311584 -0.0393708324239 0
0.599877205682 -0.0398394820131 0
0.600118393009 -0.0398419440281 0
0.600077161647 -0.0398880841286 0
0.599843216265 -0.0398074165281 0
0.5998581017 -0.0398541946681 0
0.600137856688 -0.0398567827173 0
0.600067902965 -0.0393349671069 0
0.600041043116 -0.039064804984 0
0.600128044106 -0.0398911825722 0
0.5998699391 -0.0398899699152 0
0.599877745282 -0.0396413913959 0
0.59995074185 -0.0389500194555 0
0.600000829474 -0.0392148809334 0
0.600012536983 -0.0386859375231 0
0.60014227222 -0.0396808989047 0
0.600118074072 -0.0396447046074 0
0.599880430886 -0.0394623720266 0
0.599920886106 -0.0390597805123 0
0.599929492881 -0.0393365170372 0
0.600140717939 -0.0397567190334 0
0.599856787888 -0.0398257569821 0
0.600139248858 -0.039827953182 0
0.600067518527 -0.039765816798 0
0.599853958581 -0.0396807721157 0
0.599878029184 -0.0395113258332 0
0.600063526437 -0.0395139195987 0
0.599924562214 -0.039765520193 0
0.599992419517 -0.0398279498322 0
0.599997912419 -0.0396501276781 0
0.599996180573 -0.0396519057183 0
0.59989933714 -0.0396801802692 0
0.600092676491 -0.0396825568119 0
0.599843844805 -0.0398724575821 0
0.600153948372 -0.0398742758115 0
0.599884069232 -0.0394069951526 0
0.600117258917 -0.039522218138 0
0.599924768759 -0.0395199772951 0
0.60008562236 -0.0398214617577 0
0.599946924887 -0.0387612655734 0
0.600087878717 -0.0396024530868 0
0.600153310003 -0.0398584018228 0
0.599843071179 -0.0398558802626 0
0.59992279813 -0.0397214297097 0
0.600035484226 -0.0389158249649 0
0.6000720593 -0.0397233604354 0
0.599901294759 -0.0392856220728 0
0.600036084208 -0.0398513658193 0
0.600039580585 -0.0399570390881 0
0.600134742445 -0.0396609244194 0
0.599867076749 -0.0395957531472 0
0.600153722308 -0.0398418136104 0
0.599842746704 -0.0398396339961 0
0.600143504922 -0.0398645430856 0
0.599853821742 -0.0398620988268 0
0.600068799046 -0.0390887278889 0
0.600122803787 -0.0397275730804 0
0.60009396087 -0.0391070844531 0
0.600004575211 -0.0384281143633 0
0.600045124218 -0.0389513447033 0
0.599849035203 -0.0397593338203 0
0.599873988347 -0.0397313988858 0
0.599910846705 -0.0398070498965 0
0.60008427902 -0.0398093464563 0
0.600026785482 -0.0394070665798 0
0.600093394989 -0.0392716663626 0
0.599968162708 -0.0384877431389 0
0.600101938037 -0.0399201660026 0
0.59986246708 -0.0398002098287 0
0.600132891781 -0.039802402568 0
0.600125707344 -0.0395726375661 0
0.599888368214 -0.0399125413608 0
0.599962428969 -0.0399594931312 0
0.600148562957 -0.0397394045995 0
0.599905691983 -0.0398290388 0
0.599908536847 -0.0392900724877 0
0.600113064489 -0.0395552129439 0
0.60013000528 -0.0396019323925 0
0.600105077391 -0.0394238217409 0
0.600121477278 -0.0394881001219 0
0.599891276234 -0.0395494658615 0
0.599852267811 -0.0398289912937 0
0.599987380876 -0.0392240991659 0
0.599961767303 -0.0393403255042 0
0.599849245625 -0.039824323215 0
0.600146958709 -0.0398269027498 0
0.599901170016 -0.0398194937861 0
0.600094081499 -0.039821851441 0
0.600084387736 -0.039149853846 0
0.600126191461 -0.0397669211147 0
0.600119041448 -0.0397589302857 0
0.60008560022 -0.0392910297491 0
0.599864796227 -0.039601978542 0
0.599938133655 -0.0393346267436 0
0.599862204235 -0.0397700710018 0
0.599856413216 -0.0398461601102 0
0.60013959004 -0.0398486146448 0
0.600012346751 -0.0399356700575 0
0.59994891894 -0.039598786197 0
0.599952947358 -0.0396603204934 0
0.599848465518 -0.0397374043379 0
0.600065103502 -0.039337033647 0
0.600001970087 -0.0392302306834 0
0.599858681106 -0.0397391443903 0
0.60009197557 -0.0395943667137 0
0.600039622122 -0.039965553192 0
0.600064850697 -0.0394937088758 0
0.600041864123 -0.0396622476635 0
0.599956645646 -0.0398442313911 0
0.599946420372 -0.0389518651963 0
0.600048565138 -0.0396033713519 0
0.599969677438 -0.0392019592109 0
0.600042970265 -0.0395674230421 0
0.599926580404 -0.0394968903509 0
0.599905036878 -0.0395943249918 0
0.599950713221 -0.0395690133189 0
0.600001229788 -0.0388402607143 0
0.600029537617 -0.0391994727207 0
0.599991546706 -0.0385887467424 0
0.600160484818 -0.0398591322271 0
0.599836242306 -0.0398567449602 0
0.600090013457 -0.0393991474568 0
0.600103483675 -0.0392799886742 0
0.599985766607 -0.0399510726893 0
0.599891249032 -0.0392796918072 0
0.59990455627 -0.0394030730914 0
0.600022472609 -0.0396317608467 0
0.600000255918 -0.0396791718816 0
0.599909381081 -0.0391580408141 0
0.599971413844 -0.0396334743993 0
0.599993871126 -0.039681032659 0
0.600149266389 -0.0398190758397 0
0.600070651891 -0.0398672771587 0
0.599980728073 -0.0393887082534 0
0.60006842932 -0.0385498513455 0
0.599992966349 -0.0390576315732 0
0.600091035198 -0.038839256499 0
0.599927847758 -0.039142464075 0
0.60014601317 -0.0397981180146 0
0.600153185059 -0.0398505877652 0
0.599843212532 -0.0398482359802 0
0.599877814866 -0.0397555979591 0
0.60015826593 -0.0398406014644 0
0.599838469163 -0.0398385768924 0
0.600018755959 -0.0397282549184 0
0.599884910579 -0.039461019213 0
0.600025397122 -0.0399512326273 0
0.600004552488 -0.0386317781838 0
0.60006290397 -0.0394860973703 0
0.599955617703 -0.0397556094541 0
0.600038976249 -0.0397576904405 0
0.599846233652 -0.0398121427474 0
0.60009209607 -0.0393854883202 0
0.60000041072 -0.039456582306 0
0.599911927163 -0.0393982886567 0
0.600120402012 -0.0398393893104 0
0.599939099336 -0.0390939462829 0
0.599901050539 -0.0393836680201 0
0.600003199069 -0.0390862669536 0
0.600004350409 -0.0390332001294 0
0.59984202114 -0.0397968009313 0
0.599934149151 -0.0395555877514 0
0.600044258686 -0.03885298381 0
0.599977207761 -0.0395691236958 0
0.5999238862 -0.0394637909454 0
0.600002101947 -0.0395439786804 0
0.599943837264 -0.0397168241619 0
0.60005081089 -0.0397187672701 0
0.599991625436 -0.0395455352731 0
0.600031936206 -0.0393420043798 0
0.59995598457 -0.0388052917499 0
0.600011011286 -0.0394806903883 0
0.600158695731 -0.0398418355923 0
0.599838492679 -0.0398393263347 0
0.599963658074 -0.0399681004918 0
0.600078973064 -0.0394065268712 0
0.600154701817 -0.0397976501543 0
0.599966015755 -0.0387759437838 0
0.59990030287 -0.0389382015634 0
0.599859248737 -0.0398364863578 0
0.600136685138 -0.0398388374971 0
0.599870804061 -0.0398509852117 0
0.600124902883 -0.0398535622226 0
0.600012437291 -0.0388087593208 0
0.599852507969 -0.0397440006294 0
0.600002105326 -0.0393836545711 0
0.600142243993 -0.0398513471956 0
0.600107477303 -0.0394957998159 0
0.600024394551 -0.0393101168514 0
0.600150137485 -0.0398142283499 0
0.599853912621 -0.039858314133 0
0.600142144289 -0.0398609647764 0
0.600041397542 -0.0397122547363 0
0.600117542471 -0.0396687347386 0
0.599976656056 -0.0395967846741 0
0.599865769766 -0.039814809305 0
0.600130031564 -0.039816996104 0
0.599895697445 -0.03974207219 0
0.599968934862 -0.0391056639911 0
0.600097921647 -0.0397451245482 0
0.600101747124 -0.0393534464564 0
0.600004093857 -0.0386458531587 0
0.599855552969 -0.0396745273234 0
0.600017760411 -0.0395993946046 0
0.599921207744 -0.0397423608242 0
0.600073674819 -0.0397443225542 0
0.600088627453 -0.039720754887 0
0.599887086275 -0.0396648123015 0
0.599962420436 -0.0399721625497 0
0.599888818869 -0.0398354333475 0
0.60010660671 -0.0398378858431 0
0.599976729366 -0.0388976469724 0
0.599980039637 -0.0397121370563 0
0.600014287321 -0.0397140844643 0
0.599938236236 -0.0392494231664 0
0.599901884399 -0.0392416159872 0
0.599968993259 -0.0399444110568 0
0.599915535221 -0.039662806979 0
0.599934543685 -0.0396496801813 0
0.600142614606 -0.0397384856098 0
0.600031469602 -0.0396006780399 0
0.600079179876 -0.039666667777 0
0.60006147251 -0.0392449760889 0
0.600160635804 -0.0398519648431 0
0.599836205982 -0.0398498473166 0
0.599886967684 -0.0396027199739 0
0.599884216465 -0.0397950056458 0
0.600111155727 -0.0397968967965 0
0.600128902883 -0.0396726224829 0
0.59990190873 -0.0397916968595 0
0.600092757481 -0.0397935270104 0
0.599834537272 -0.0398609921389 0
0.600162626977 -0.039863188486 0
0.599874067447 -0.0394892735161 0
0.600047447405 -0.0398891664956 0
0.600149345746 -0.0397650965556 0
0.60005134418 -0.0396524296206 0
0.600108408922 -0.0396693656321 0
0.600066287187 -0.0391141052983 0
0.599903698394 -0.0395129537078 0
0.599881754662 -0.0391744457306 0
0.600112108764 -0.0397135511686 0
0.600155531643 -0.039816100874 0
0.599841136006 -0.0398143548641 0
0.599869999784 -0.0397529597736 0
0.599866754176 -0.0396707363702 0
0.600104699116 -0.0393527432371 0
0.599907600192 -0.039587129013 0
0.600073579532 -0.0390614284964 0
0.600105759133 -0.0395873622386 0
0.600071248151 -0.0395463193041 0
0.59998022936 -0.0397785799547 0
0.600108264868 -0.0396102012115 0
0.600039143192 -0.0392698631601 0
0.600131814909 -0.0395852835537 0
0.600149054029 -0.0397538783015 0
0.600016022755 -0.0398209201 0
0.599868691706 -0.039557481289 0
0.599969221985 -0.0394521060638 0
0.599947360514 -0.0398955989046 0
0.599905493025 -0.0397228804967 0
0.599870838134 -0.0395560475324 0
0.599921167378 -0.0392281000872 0
0.599893155495 -0.0394993441357 0
0.599875298393 -0.0396676224848 0