# vtk DataFile Version 2.0
Generated with Solid Solver
ASCII
DATASET UNSTRUCTURED_GRID
POINTS 999 float 
0.2 4.325 0.0
1.4 4.325 0.0
1.4 4.825 0.0
0.2 4.825 0.0
1.4 4.34523264049 0.0
1.4 4.36751203886 0.0
1.4 4.39204525371 0.0
1.4 4.4190602782 0.0
1.4 4.44880817466 0.0
1.4 4.48156541084 0.0
1.4 4.51763640748 0.0
1.4 4.5573564007 0.0
1.4 4.60109451608 0.0
1.4 4.64925723872 0.0
1.4 4.70229217343 0.0
1.4 4.76069218095 0.0
1.33333333333 4.825 0.0
1.26666666667 4.825 0.0
1.2 4.825 0.0
1.13333333333 4.825 0.0
1.06666666667 4.825 0.0
1.0 4.825 0.0
0.933333333334 4.825 0.0
0.866666666668 4.825 0.0
0.800000000001 4.825 0.0
0.733333333334 4.825 0.0
0.666666666668 4.825 0.0
0.600000000001 4.825 0.0
0.533333333334 4.825 0.0
0.466666666667 4.825 0.0
0.4 4.825 0.0
0.333333333334 4.825 0.0
0.266666666667 4.825 0.0
0.2 4.76069218095 0.0
0.2 4.70229217343 0.0
0.2 4.64925723872 0.0
0.2 4.60109451608 0.0
0.2 4.5573564007 0.0
0.2 4.51763640748 0.0
0.2 4.48156541084 0.0
0.2 4.44880817466 0.0
0.2 4.4190602782 0.0
0.2 4.39204525371 0.0
0.2 4.36751203886 0.0
0.2 4.34523264049 0.0
0.212131543907 4.30926329506 0.0
0.224675715302 4.29385348652 0.0
0.23762369102 4.27878141198 0.0
0.250966423879 4.26405760374 0.0
0.264694484585 4.24969246611 0.0
0.278798324214 4.23569599189 0.0
0.293267939266 4.22207810803 0.0
0.308093289028 4.20884826442 0.0
0.323263842145 4.19601585877 0.0
0.338769084145 4.18358978512 0.0
0.354597997314 4.17157887342 0.0
0.37073960121 4.15999145532 0.0
0.387182441982 4.14883575334 0.0
0.403915091795 4.13811952025 0.0
0.420925712897 4.12785033813 0.0
0.438202430937 4.11803537461 0.0
0.455733079095 4.10868154223 0.0
0.473505374364 4.09979539439 0.0
0.491506842655 4.09138316882 0.0
0.509724826085 4.0834507802 0.0
0.528146580414 4.07600377808 0.0
0.546759103951 4.06904741762 0.0
0.56554943677 4.06258654322 0.0
0.584504260001 4.05662573401 0.0
0.60361041518 4.0511691282 0.0
0.622854334779 4.04622060039 0.0
0.642222678753 4.04178358113 0.0
0.661701681839 4.03786122392 0.0
0.681277836375 4.03445624851 0.0
0.700937245817 4.03157107217 0.0
0.720666255912 4.02920769845 0.0
0.740450894784 4.02736780161 0.0
0.76027736978 4.02605266363 0.0
0.780131702711 4.02526321235 0.0
0.799999999998 4.025 0.0
0.819868297285 4.02526321235 0.0
0.839722630216 4.02605266363 0.0
0.859549105212 4.02736780161 0.0
0.879333744085 4.02920769845 0.0
0.89906275418 4.03157107217 0.0
0.918722163621 4.03445624851 0.0
0.938298318157 4.03786122392 0.0
0.957777321244 4.04178358113 0.0
0.977145665218 4.04622060039 0.0
0.996389584817 4.0511691282 0.0
1.01549574 4.05662573401 0.0
1.03445056323 4.06258654322 0.0
1.05324089605 4.06904741762 0.0
1.07185341958 4.07600377808 0.0
1.09027517391 4.0834507802 0.0
1.10849315734 4.09138316882 0.0
1.12649462563 4.09979539439 0.0
1.1442669209 4.10868154222 0.0
1.16179756906 4.1180353746 0.0
1.1790742871 4.12785033813 0.0
1.1960849082 4.13811952024 0.0
1.21281755802 4.14883575334 0.0
1.22926039879 4.15999145532 0.0
1.24540200269 4.17157887342 0.0
1.26123091585 4.18358978512 0.0
1.27673615785 4.19601585877 0.0
1.29190671097 4.20884826442 0.0
1.30673206073 4.22207810803 0.0
1.32120167579 4.23569599189 0.0
1.33530551541 4.24969246611 0.0
1.34903357612 4.26405760374 0.0
1.36237630898 4.27878141198 0.0
1.3753242847 4.29385348652 0.0
1.38786845609 4.30926329506 0.0
1.05632730172 4.46025283906 0.0
0.549964048968 4.4630053958 0.0
0.806135520676 4.31186690218 0.0
0.603895783049 4.26079310371 0.0
1.22984770884 4.38318704125 0.0
0.3703382852 4.38423552752 0.0
0.995322815839 4.25565031136 0.0
0.728315816804 4.1765935937 0.0
0.872128173905 4.17288724072 0.0
1.14059401893 4.27298468684 0.0
0.461553191009 4.27181671009 0.0
0.784706775856 4.56821390922 0.0
0.398287125272 4.57945970538 0.0
1.20625306554 4.58334743514 0.0
0.624100842742 4.1589824436 0.0
0.5257453845 4.18811776279 0.0
0.978502430793 4.15488737058 0.0
1.07419209812 4.18825154482 0.0
0.364313698077 4.28677035763 0.0
1.23509538257 4.28681716733 0.0
0.68124123937 4.39284548972 0.0
1.31679378691 4.35012066749 0.0
0.283206213094 4.35012066749 0.0
0.791498533126 4.11467141721 0.0
0.931481076052 4.3801344917 0.0
0.966719065571 4.62778042839 0.0
0.684451667517 4.11068036752 0.0
0.618335406951 4.62686910993 0.0
0.450982331762 4.19686171732 0.0
0.915674266355 4.10995633851 0.0
1.14900051594 4.19689012964 0.0
1.30193709687 4.4481448133 0.0
0.298574667609 4.44816296922 0.0
1.05734787542 4.34990107617 0.0
0.539273225177 4.35252599628 0.0
0.709896798149 4.27721026287 0.0
0.895708916005 4.26924194389 0.0
0.813273511364 4.43835766235 0.0
0.559289631452 4.13230879113 0.0
1.04001407307 4.13281539633 0.0
0.801161810585 4.23146244955 0.0
0.665113819616 4.52056650186 0.0
0.852577362173 4.09111846388 0.0
0.390256727869 4.2242806298 0.0
1.20974450479 4.22428104599 0.0
0.921542541183 4.52778058719 0.0
1.14030889032 4.36437344809 0.0
1.15600477272 4.46808538305 0.0
0.435243219029 4.4750581257 0.0
0.462045157798 4.36654654286 0.0
0.735806812738 4.08472269746 0.0
1.30082934537 4.29793772796 0.0
0.299170654625 4.29793772796 0.0
0.533651712118 4.26265983853 0.0
0.666130919144 4.21652131559 0.0
1.0676097303 4.26179469382 0.0
1.08054433577 4.58530946155 0.0
0.506773767255 4.56568295079 0.0
0.626745312844 4.10124420826 0.0
0.933845304214 4.2106954732 0.0
0.293717639664 4.55175000185 0.0
0.312505022079 4.66426411351 0.0
1.3058164124 4.55154930624 0.0
1.29054387065 4.66302765963 0.0
0.973467966326 4.09941619478 0.0
0.487935413164 4.15087084015 0.0
0.461549079751 4.68836834982 0.0
1.11203248746 4.15093503889 0.0
1.14453515393 4.70617370303 0.0
0.840217564202 4.68891146633 0.0
0.585347033288 4.20539048534 0.0
0.619177396637 4.34227576306 0.0
0.331644410315 4.24962190462 0.0
1.26835558968 4.24962190462 0.0
1.01536156978 4.19987473052 0.0
0.809331033562 4.07065709122 0.0
0.982321540791 4.33437358971 0.0
0.725600576914 4.66999651799 0.0
0.812291456186 4.16642942492 0.0
0.335887692543 4.33918235669 0.0
1.26344844681 4.34017131907 0.0
1.23449730504 4.49457441524 0.0
1.34334172095 4.40539551957 0.0
0.256658279045 4.40539551957 0.0
0.741646926828 4.34287908527 0.0
0.674799084703 4.16673768522 0.0
1.18647435526 4.30955189749 0.0
0.360563250283 4.49596479569 0.0
0.873716483853 4.33845499203 0.0
0.418704489949 4.31146264283 0.0
0.492670911224 4.22931614809 0.0
0.403480880356 4.19046776931 0.0
1.19651541215 4.1904686246 0.0
0.728649253738 4.46214546491 0.0
1.00883674467 4.40174664879 0.0
1.11035034557 4.23161841276 0.0
0.261968539765 4.3130079512 0.0
1.33803146023 4.3130079512 0.0
0.74649980488 4.1318354354 0.0
0.927597725248 4.1577597079 0.0
0.892956618256 4.07619338913 0.0
0.659794281787 4.07951387326 0.0
0.587663534405 4.09486537006 0.0
0.942353209926 4.07935300973 0.0
1.01493747319 4.09476013719 0.0
0.613130017774 4.41369803882 0.0
0.449373501074 4.15377191978 0.0
0.514840228377 4.12225850006 0.0
0.497057592 4.41333092106 0.0
1.15061382426 4.15379293084 0.0
1.08514419473 4.12228328152 0.0
0.745617635771 4.23098957592 0.0
0.87523452213 4.59853036549 0.0
0.855262884783 4.2258970831 0.0
1.01126200032 4.53280064162 0.0
1.09391916408 4.40632408872 0.0
1.04436265455 4.71482000827 0.0
0.314320181089 4.38773968607 0.0
1.28649331902 4.38743720145 0.0
0.771211579291 4.06316862024 0.0
0.432259099658 4.24006002157 0.0
0.698583889427 4.07144353526 0.0
1.16802128371 4.238862881 0.0
1.09587629216 4.3086676659 0.0
1.35920470355 4.35666960471 0.0
0.240795296449 4.35666960471 0.0
0.504003580654 4.30815758118 0.0
0.579942709371 4.5342075073 0.0
0.875915224914 4.12815792528 0.0
0.426503136644 4.40717733008 0.0
0.57541416445 4.30365301522 0.0
0.683877978289 4.33161848113 0.0
0.888061695889 4.44633509246 0.0
0.26012287522 4.49859249103 0.0
1.33987712478 4.49859249103 0.0
0.801393572636 4.37060096582 0.0
0.558460082533 4.72496728209 0.0
1.1741923373 4.41132830101 0.0
0.83220012886 4.12779415912 0.0
1.02815069622 4.30053276509 0.0
0.948308583502 4.2880204454 0.0
0.846588933095 4.50834596945 0.0
0.343666800815 4.43485820652 0.0
1.25632767671 4.43480360053 0.0
0.97849585731 4.47031535602 0.0
1.10170977548 4.51507265998 0.0
0.662193131828 4.26809398492 0.0
0.400503668388 4.26881657105 0.0
1.20117145985 4.26130427377 0.0
0.350957892513 4.21796558019 0.0
1.24904210749 4.21796558019 0.0
0.771964652188 4.18905379403 0.0
0.932165148285 4.72736281402 0.0
0.373672364094 4.73321357765 0.0
0.760245937722 4.28409350779 0.0
0.848718469252 4.05767763075 0.0
1.23385612561 4.7358294747 0.0
0.846421485813 4.28065918421 0.0
0.651597058631 4.13043284014 0.0
0.650489852552 4.72138045504 0.0
0.58457834847 4.16375088261 0.0
0.48701309933 4.18859927013 0.0
0.708495738406 4.58856947756 0.0
1.11203398596 4.18878062515 0.0
0.54865558244 4.10250047869 0.0
1.05126102377 4.10234629471 0.0
0.300013757486 4.26259646442 0.0
1.29998624251 4.26259646442 0.0
0.9465032388 4.12718070354 0.0
0.708587583337 4.14146095907 0.0
0.973348904468 4.19537871864 0.0
0.628721855632 4.19538356945 0.0
0.380175010018 4.34021880077 0.0
0.662092932411 4.45899041267 0.0
1.05133526787 4.22221992007 0.0
0.528087045766 4.64327882187 0.0
1.22233124543 4.33521693908 0.0
1.19001193434 4.36273586668 0.0
0.853024099244 4.39544003492 0.0
0.542800296246 4.22324366905 0.0
0.247706318737 4.45239119247 0.0
1.35229368126 4.45239119247 0.0
0.599153768578 4.12953797005 0.0
1.01616570494 4.16227683178 0.0
0.744705786938 4.40569544575 0.0
1.31929001115 4.73702550052 0.0
0.777615355331 4.15113602511 0.0
1.33132411895 4.60631378639 0.0
0.265621610877 4.60975488866 0.0
0.532023338888 4.15374454388 0.0
1.0697792195 4.15241429251 0.0
0.286371037106 4.73010312914 0.0
0.497725885905 4.50153668256 0.0
0.46053455822 4.31587947599 0.0
0.433799237968 4.54629400991 0.0
0.388624781906 4.65094200004 0.0
0.554823673752 4.40451940232 0.0
1.1421595646 4.31818301431 0.0
1.14760043966 4.61655103139 0.0
1.21258698805 4.65320200685 0.0
1.16279096046 4.53292621409 0.0
0.995762647814 4.12508772517 0.0
0.456229040627 4.61456685246 0.0
0.707289391156 4.21520271873 0.0
0.763036833302 4.74285445535 0.0
0.78386198569 4.49787013126 0.0
[...]
POINT_DATA 999
VECTORS Displacement float
-0.00285829767993 -0.196155237094 0
0.00260241794367 -0.196290828107 0
0.0 -0.2 0
0.0 -0.2 0
0.00284165684675 -0.196274347447 0
0.00307264803653 -0.196252549437 0
0.00328095191677 -0.196227111861 0
0.00345968193251 -0.196217810796 0
0.00357251974002 -0.196234298447 0
0.00364822280702 -0.196286959131 0
0.00362755650856 -0.196384350085 0
0.00350331851526 -0.19653589713 0
0.00325985536772 -0.196782771763 0
0.0028458680961 -0.197149347629 0
0.00223963567913 -0.197701314815 0
0.0013585133149 -0.198538452485 0
0.0 -0.2 0
0.0 -0.2 0
0.0 -0.2 0
0.0 -0.2 0
0.0 -0.2 0
0.0 -0.2 0
0.0 -0.2 0
0.0 -0.2 0
0.0 -0.2 0
0.0 -0.2 0
0.0 -0.2 0
0.0 -0.2 0
0.0 -0.2 0
0.0 -0.2 0
0.0 -0.2 0
0.0 -0.2 0
0.0 -0.2 0
-0.00138147624935 -0.198508877221 0
-0.00228881341536 -0.197646572886 0
-0.00294788369514 -0.197073757422 0
-0.00337132174612 -0.196688063577 0
-0.00363396265233 -0.196428642154 0
-0.00378078340995 -0.196268349706 0
-0.00382104077454 -0.1961659014 0
-0.00376270321291 -0.196108821256 0
-0.00366569210917 -0.196088775133 0
-0.00350145104582 -0.196095249826 0
-0.0033064076211 -0.196118741425 0
-0.00308727085109 -0.196139315077 0
-0.00266874691996 -0.196031038782 0
-0.0024597262818 -0.195891561368 0
-0.00223361346392 -0.195728488944 0
-0.00198581031465 -0.195542341628 0
-0.00171750981507 -0.195325098508 0
-0.00143669986134 -0.195071573945 0
-0.00113903861298 -0.194784628817 0
-0.000812274992559 -0.194460667282 0
-0.00045983211384 -0.194070887695 0
-0.00010037591422 -0.193646552034 0
0.000285014114675 -0.193155044888 0
0.000716971067424 -0.192587566135 0
0.00116744314618 -0.191910366428 0
0.00170020605684 -0.191021015767 0
0.00221806048595 -0.189919782347 0
0.00264335376823 -0.188815216594 0
0.00296107112709 -0.187749675064 0
0.00319478599791 -0.186693040893 0
0.0033537900411 -0.185698048525 0
0.00345034786834 -0.184726589562 0
0.00348981260347 -0.183811887458 0
0.00346425754882 -0.18293393491 0
0.00339467727715 -0.182112366525 0
0.00327366129218 -0.1813047961 0
0.00309036868974 -0.18062847994 0
0.00286438553248 -0.180005762531 0
0.00261694964801 -0.179441058401 0
0.00233385365654 -0.178940797405 0
0.00203397452363 -0.178506957458 0
0.00170193674279 -0.178130719657 0
0.00135485396218 -0.177823303514 0
0.000983383785528 -0.177573447332 0
0.000604977115392 -0.177388304928 0
0.000212219616122 -0.177265847602 0
-0.00021810781711 -0.17716724349 0
-0.000640781306834 -0.17716805044 0
-0.00104770314123 -0.177344836574 0
-0.00142708829791 -0.177539126889 0
-0.00179108000757 -0.177795726901 0
-0.00213754175222 -0.178112964797 0
-0.00246776334281 -0.178493195564 0
-0.00277496227429 -0.178940863425 0
-0.00304498614825 -0.179438996935 0
-0.00328763376478 -0.180004390411 0
-0.0035036573503 -0.180637302008 0
-0.00367317645862 -0.181323674846 0
-0.00380387953655 -0.182074793799 0
-0.00388397371322 -0.182874191961 0
-0.00392219042965 -0.183733680638 0
-0.00388709898582 -0.184652056683 0
-0.00379183618525 -0.185632272154 0
-0.00362962805727 -0.186639102265 0
-0.00339904388261 -0.18769193727 0
-0.00308716820389 -0.188756558763 0
-0.0026789044581 -0.189848046996 0
-0.00218389697465 -0.190952475298 0
-0.00152593549956 -0.19204480383 0
-0.00104392900398 -0.192728032067 0
-0.000615378625968 -0.193256645674 0
-0.000226678133958 -0.193741925602 0
0.000138566613167 -0.194166989156 0
0.000497203751753 -0.194559425089 0
0.000831053108825 -0.194887343389 0
0.00113593824944 -0.195178475377 0
0.00142415918589 -0.195436418597 0
0.00169976877384 -0.195658127493 0
0.00195495012119 -0.195848918882 0
0.00218851595017 -0.196016761601 0
0.00240506998982 -0.19616123317 0
0.00230417380629 -0.192510037131 0
-0.00243254093471 -0.19248570429 0
-9.8021617841e-05 -0.18595764125 0
-0.0011509549987 -0.186272926598 0
0.00304624406148 -0.194028908456 0
-0.00326844540348 -0.193978212467 0
0.000776020996423 -0.186091829345 0
-7.686672749e-05 -0.181896854801 0
-0.000316549808238 -0.181780855227 0
0.00170673944984 -0.190356237364 0
-0.00197207332056 -0.190259442347 0
-0.000196907467877 -0.193795947046 0
-0.00288819725652 -0.196293875521 0
0.00276583459055 -0.196417306751 0
0.000371124009214 -0.182924975453 0
-0.000175888236563 -0.186401979728 0
-0.000839251403409 -0.182859073945 0
-0.000187454476166 -0.186367778156 0
-0.0023589133502 -0.193248575446 0
0.00208574902098 -0.193299485804 0
-0.00125741589781 -0.189089887372 0
0.00289364159653 -0.195254634646 0
-0.00313427354742 -0.195157729935 0
-0.000131702222539 -0.179705486757 0
0.00111503360573 -0.188824036101 0
0.0011909937208 -0.195777052301 0
0.000811189268801 -0.180465803724 0
-0.0013929500843 -0.195818778185 0
-0.000516916255471 -0.189376612324 0
-0.00121856276727 -0.180434021319 0
0.000171999148575 -0.18936031479 0
0.00345976126959 -0.195601376778 0
-0.00364416057323 -0.195517684029 0
0.00201205402162 -0.189894524145 0
-0.00230035801213 -0.190022697157 0
-0.000689338455594 -0.185232198338 0
0.00036831780312 -0.185027400413 0
3.30663267867e-05 -0.189984513995 0
0.0012520455497 -0.183938621797 0
-0.00164124486563 -0.183890238 0
-0.000164450085407 -0.183341723787 0
-0.00136907527823 -0.192867947505 0
-0.00078656288799 -0.179196542139 0
-0.00122794689183 -0.192057228096 0
0.00092251935791 -0.192119273391 0
0.00108531312346 -0.192985836305 0
0.00260424982441 -0.191961496195 0
0.00293949528119 -0.194052825888 0
-0.00316018961397 -0.194256235311 0
-0.00283553528146 -0.191922577912 0
0.000559156623311 -0.179131485841 0
0.00225278357127 -0.194833458545 0
-0.00252141893915 -0.194738246627 0
-0.0015317813603 -0.187975478164 0
-0.000440500503319 -0.183860416157 0
0.00121559929476 -0.187972216661 0
0.00212420583744 -0.195511002533 0
-0.0024179795411 -0.195195746316 0
0.00152503711516 -0.181286246407 0
3.33702751461e-05 -0.183670769245 0
-0.0034438693581 -0.196466587883 0
-0.00239464052712 -0.197787578636 0
0.00331688028328 -0.196531535047 0
0.00235394824842 -0.19781092126 0
-0.00196522556099 -0.181240872633 0
0.000942200338414 -0.186971782907 0
-0.00167614567416 -0.197773043724 0
-0.00134232275149 -0.186924784053 0
0.00146797845704 -0.198117064449 0
0.000208867607722 -0.196962488704 0
-0.000453476639855 -0.185128128099 0
-0.0016542866009 -0.188339449713 0
-0.00172460615882 -0.193912072909 0
0.00143010460096 -0.194000227936 0
-3.6600938193e-06 -0.184971463966 0
-0.000343289279994 -0.178418455969 0
0.0013570632859 -0.188134703386 0
-0.000518221163326 -0.196540306491 0
-0.000218542570306 -0.181288521798 0
-0.00300353700066 -0.194226448599 0
0.00276702024458 -0.194295638813 0
0.00326444576593 -0.195403389555 0
0.00334821928729 -0.195768792654 0
-0.00355946281533 -0.195666216569 0
-0.000634134759299 -0.187107744947 0
0.000123101586409 -0.182227599983 0
0.00231982637331 -0.192225231082 0
-0.00344603833854 -0.195415791996 0
0.000487922967531 -0.187052411035 0
-0.00258722523569 -0.192077763315 0
-0.0011636709894 -0.188438650253 0
-0.000365776042058 -0.191318031168 0
4.31541526591e-05 -0.191360677567 0
-0.000812445035406 -0.190863646192 0
0.00185257763906 -0.190389424017 0
0.000890783443244 -0.188573472154 0
-0.00272024373801 -0.195384652384 0
0.00245875415813 -0.195493451629 0
0.00013837755244 -0.180402748232 0
-0.000617565015751 -0.181985054849 0
-0.00142463789885 -0.179186890448 0
0.00158653249747 -0.180027340774 0
0.00208988160509 -0.182132612057 0
-0.00202308637056 -0.180060962345 0
-0.00253647190627 -0.182196618581 0
-0.00190281400532 -0.190423350008 0
0.000897067920048 -0.188749883124 0
0.00186248568801 -0.185286817157 0
-0.00279419162073 -0.192167181073 0
-0.00130572560832 -0.188701748264 0
-0.00227950296028 -0.185230847157 0
-0.000331501165934 -0.183489527405 0
0.000577014689151 -0.194709874304 0
-2.31800090387e-05 -0.183326753347 0
0.00183401601874 -0.193765871931 0
0.00250663979239 -0.191877686154 0
0.00107498942287 -0.197971634511 0
-0.00339627954901 -0.19490423047 0
0.00317701424847 -0.194993908179 0
0.000208176698875 -0.178293728467 0
-0.00152747315424 -0.190725547481 0
0.00119208946418 -0.179187564025 0
0.00120092634349 -0.190739371204 0
0.00193167341302 -0.189811924335 0
0.00297191400041 -0.195823445201 0
-0.00321053338276 -0.195708784634 0
-0.00219986242896 -0.189802137745 0
-0.00203642585568 -0.193870947468 0
-0.000698237174899 -0.180464119611 0
-0.00316473834681 -0.193289510486 0
-0.00172785191693 -0.188041691581 0
-0.00108796422204 -0.187195665367 0
0.000789451425182 -0.190467699624 0
-0.00371695362489 -0.19612184056 0
0.00355454236607 -0.196211571352 0
-0.000111027700604 -0.187849347538 0
-0.00102166813586 -0.198151286579 0
0.00296860057148 -0.193405923051 0
-0.000412093958213 -0.180149794723 0
0.00143892754213 -0.188022369844 0
0.000804439063705 -0.186247028108 0
0.000383103843447 -0.192136928506 0
-0.00351542286965 -0.194904336238 0
0.00332366339244 -0.19496686395 0
0.00164972697723 -0.191864434015 0
0.00253512258632 -0.194259695515 0
-0.000906079594961 -0.185497525628 0
-0.00206585733955 -0.192091390846 0
0.00165664717907 -0.192122875149 0
-0.00105209187592 -0.193313616145 0
0.000740693853365 -0.193401274029 0
-0.000170231293189 -0.182034973655 0
0.000557346686451 -0.197981690392 0
-0.00134829256699 -0.198711051922 0
-0.000399774930453 -0.185133946742 0
-0.000968715103243 -0.178238800947 0
0.00128673284695 -0.198772865193 0
0.000127841221028 -0.185046623729 0
0.00075165614204 -0.181565451506 0
-0.000703363556408 -0.197881872082 0
0.000366595634325 -0.184012906743 0
-0.000236894149165 -0.187793798226 0
-0.000833653714646 -0.194496693082 0
-0.000125756275702 -0.187723883466 0
0.00226868118313 -0.183588620306 0
-0.0026971842001 -0.183533725451 0
-0.00195714650637 -0.194661050997 0
0.00166974918716 -0.194759055849 0
-0.00118985078641 -0.181435488669 0
0.000280867145948 -0.18103779382 0
-0.000124473950113 -0.183901879304 0
-0.000232555691951 -0.183876750185 0
-0.00294485233483 -0.193330431606 0
-0.00146256939759 -0.191185259151 0
0.000501599215883 -0.186520188929 0
-0.00180925221043 -0.196630302612 0
0.00266069604566 -0.193391318267 0
0.00279954801348 -0.193002598977 0
0.000399257784162 -0.188745839199 0
-0.000877874585336 -0.186741532215 0
-0.00373761233161 -0.195921767302 0
0.00355127936801 -0.196022592911 0
0.00109241432798 -0.182714145126 0
-0.000786285240651 -0.183963308405 0
-0.000657087199208 -0.189074638907 0
0.00141910824309 -0.19876214788 0
-0.000101038927234 -0.180834807283 0
0.00303960653099 -0.197100951202 0
-0.00312236931039 -0.197071639401 0
0.000741458300516 -0.185361233123 0
-0.00118319885348 -0.185349556417 0
-0.00153558094863 -0.198656900477 0
-0.00273152562387 -0.193972721435 0
-0.00248150369105 -0.191059066134 0
-0.00292866442408 -0.195480616143 0
-0.00230375644371 -0.19744517323 0
-0.00236784239052 -0.191013804664 0
0.00225581682738 -0.191189418072 0
0.00228022305656 -0.196582013975 0
0.00221228729833 -0.197507733811 0
0.00283662182532 -0.195245908992 0
-0.00156621006078 -0.182444494973 0
-0.00236735374453 -0.196503223669 0
-0.000342844279955 -0.183300504499 0
-0.000165465544908 -0.198233988429 0
-0.000243368287211 -0.191786640679 0
0.000895345972514 -0.187340652361 0
0.000578885149476 -0.190313987651 0
-3.97560397242e-05 -0.183140952218 0
-0.000958257121655 -0.190287041185 0
0.00343201381098 -0.195898866448 0
0.000797416592425 -0.178494744551 0
-0.0023201157784 -0.194086875907 0
0.0020447931842 -0.194171616824 0
-0.000455537901971 -0.192536276399 0
0.000134957867657 -0.192627398061 0
-0.00194223459568 -0.192157685369 0
-0.00307017087924 -0.193018755748 0
0.000155434370263 -0.179184374415 0
-0.000887312926058 -0.193053094194 0
-0.00179959782929 -0.193022474131 0
0.00150886581621 -0.193092798033 0
-0.0035829639424 -0.195785385473 0
0.0031852034467 -0.194522672949 0
0.000468687911229 -0.185052066164 0
-0.00231413670359 -0.195197228989 0
0.00203791058808 -0.195303919594 0
0.00158494275645 -0.197076917146 0
-0.00335380419938 -0.194466069354 0
-0.00294373587201 -0.195748337055 0
0.00269163157312 -0.195867090865 0
0.00212339053511 -0.180821778291 0
-0.000163680380574 -0.182355857113 0
0.00285476802362 -0.196976305269 0
-0.00296603696214 -0.196928569783 0
-0.00172456365298 -0.189051411739 0
0.000589863151779 -0.179999601972 0
-0.000144327651368 -0.184351142946 0
-0.000425046921923 -0.179264699148 0
0.00232626530445 -0.190903424088 0
0.00144412653561 -0.189102792164 0
-0.00132949600742 -0.18693712035 0
-0.00192546700705 -0.179157579266 0
-0.0024924474683 -0.180859212303 0
0.00267972877246 -0.193350200805 0
-0.00295936247138 -0.194764485148 0
0.002710827294 -0.194852894192 0
0.00121265140339 -0.194287718512 0
-0.00257920238177 -0.190917234607 0
-0.00120657763989 -0.186682637409 0
-0.000543505157287 -0.185023725491 0
-0.00145946246793 -0.194254357746 0
-0.000175314364594 -0.195891586259 0
0.00175987130871 -0.18704602591 0
-0.00217922647674 -0.186993985203 0
-0.00130809694791 -0.18958310657 0
0.000905809662997 -0.189540572694 0
-0.00360406781242 -0.196445659813 0
0.00346787171096 -0.196529110451 0
-0.000815878145288 -0.185236182635 0
0.000928512224327 -0.186822635974 0
7.23256051135e-06 -0.185320691814 0
0.00166163476629 -0.195466558742 0
-0.00134698589348 -0.17849629663 0
0.00127718730576 -0.190533915104 0
0.00320970215999 -0.195959819129 0
-0.00343417125308 -0.195842959135 0
-0.000771854853107 -0.190610682747 0
-0.00101666884927 -0.179735341165 0
0.000449259009609 -0.19062473092 0
-0.000605383235614 -0.184379434959 0
0.000670899193965 -0.196385545329 0
0.000841736948272 -0.198865784064 0
0.00218534460461 -0.190994481012 0
-0.00205249927817 -0.189552851923 0
0.00320161754876 -0.195381487218 0
-0.00342208905432 -0.195289352064 0
0.00313379859387 -0.196193790502 0
-0.00327723160098 -0.196107789434 0
-0.000768439317958 -0.181099183394 0
0.00195293059337 -0.191432594664 0
0.00170504617364 -0.179221374845 0
-0.000120376097757 -0.177842071895 0
-0.000339527635259 -0.181113925423 0
-0.00304226736978 -0.193249982444 0
-0.00222077565478 -0.191553829115 0
-0.00121468344374 -0.193966617478 0
0.0009067995642 -0.194059265089 0
0.000166711338512 -0.187233860934 0
0.000205618432744 -0.184103581186 0
-0.000642737174713 -0.17799649187 0
0.00236822777152 -0.197866963562 0
-0.00274412603402 -0.193879447333 0
0.0024696879892 -0.193954386683 0
0.00165872031001 -0.189089673004 0
-0.00262628805692 -0.197624386198 0
-0.00081808902138 -0.198931510935 0
0.00275757818356 -0.192554817878 0
-0.00193518409226 -0.195602055279 0
9.50300396437e-05 -0.182876409464 0
0.00146412101159 -0.189112356078 0
0.00161767617264 -0.188714401924 0
0.000268959983844 -0.184955290186 0
0.00112765557735 -0.187075406513 0
-0.00159727810098 -0.189175004237 0
-0.00320288491403 -0.195192307886 0
0.00121513387635 -0.180827229522 0
0.000959983074381 -0.182172202515 0
-0.00319157228919 -0.194750768641 0
0.00295566153497 -0.194849123631 0
-0.00153042268781 -0.19444236012 0
0.00123079030955 -0.19453919209 0
-0.00032392142939 -0.182253193298 0
0.00218959656859 -0.192722134178 0
0.00223154673525 -0.193717916554 0
-0.00044950711205 -0.182890764966 0
-0.0019280986081 -0.188778925775 0
-0.000622529585843 -0.185847332621 0
-0.00267726731555 -0.192906818166 0
-0.00299324054475 -0.195470191993 0
0.00274384791487 -0.195578908322 0
0.000231970569043 -0.198426122585 0
0.000385736248602 -0.186422856881 0
0.000345103288085 -0.18803830071 0
-0.00296143752902 -0.192508582312 0
0.000381711632727 -0.185798400955 0
-0.00165566123118 -0.180797967486 0
-0.00276117621893 -0.192946509757 0
0.000465875529557 -0.187237258305 0
0.0008723183322 -0.199072358337 0
0.00265503917427 -0.182712326112 0
-0.000720006191505 -0.188005030503 0
-0.000873278157301 -0.196199938713 0
-2.51675885234e-05 -0.181112860499 0
-0.000680522630072 -0.186505087661 0
-0.000288396777172 -0.184116559504 0
0.00261003243755 -0.184319025978 0
-0.00311982995403 -0.182674644271 0
-0.000762487383564 -0.18725202926 0
-0.00303823559123 -0.1842535476 0
-0.000210329830124 -0.180459629424 0
-2.13656708732e-05 -0.184051471689 0
-4.74581939856e-05 -0.178742935796 0
0.00346552096375 -0.196012854041 0
-0.00366742966519 -0.19590228975 0
0.00256900410341 -0.181212334066 0
0.00222255079773 -0.18009212608 0
-0.000294084893275 -0.198792095981 0
-0.00262036061877 -0.180087212221 0
-0.00297283374057 -0.181252717895 0
0.00242532524958 -0.18616706859 0
0.00192101537957 -0.18800974486 0
-0.000110339789738 -0.182459665524 0
-0.00285007825044 -0.186109696622 0
-0.00235186522524 -0.187956481412 0
0.00310776260534 -0.194883100971 0
0.0014060509134 -0.196619474146 0
-0.000309044587347 -0.186943374656 0
0.000613867634772 -0.177988927516 0
-0.00154069823227 -0.179734611246 0
0.0012265564443 -0.178438086884 0
0.000478831162198 -0.181302898289 0
0.00286197711939 -0.193916923491 0
0.00319638512735 -0.19568271841 0
-0.00342040169699 -0.195578114711 0
-0.00240028678856 -0.193635696206 0
0.00335510164861 -0.195366367994 0
-0.00355918258229 -0.19528327454 0
0.000283237244904 -0.193621786049 0
-0.000850187410502 -0.185664535506 0
0.000509287096244 -0.198772055305 0
-0.000659385477553 -0.17874238292 0
0.000680876191678 -0.188431488742 0
0.000297578115074 -0.191810024065 0
-0.000623522476387 -0.19189846246 0
-0.00325614587172 -0.194385078868 0
0.000658438506212 -0.18617663328 0
-0.0018480738943 -0.183011266114 0
2.33579330285e-05 -0.183855763611 0
0.0024811602425 -0.195662176292 0
-0.000218153211601 -0.18255731229 0
-0.000962468526566 -0.186094031361 0
0.00120065002533 -0.17985130721 0
-0.000176115456015 -0.182194283101 0
-0.00333862484775 -0.194061766254 0
-0.0010292947666 -0.189800824566 0
-0.000604108024062 -0.18004578788 0
-0.000417108943169 -0.190257725617 0
-0.000994603433729 -0.187935036582 0
0.00167529188677 -0.184377419291 0
-9.62408677577e-05 -0.190199893569 0
-0.000253626221577 -0.190190424637 0
-0.00208788733714 -0.184328571367 0
0.00014418063231 -0.186125771141 0
0.000291668691096 -0.17966273051 0
0.00175662275954 -0.183167197313 0
0.0034128169826 -0.195451898047 0
-0.00358496936862 -0.195358980552 0
-0.000812087446745 -0.199140946134 0
-0.000451283029262 -0.183837690754 0
0.00313262032476 -0.194088045333 0
5.09462998722e-05 -0.1798195963 0
-0.00179957427605 -0.178643127145 0
-0.00289355656693 -0.195125915716 0
0.00263978173919 -0.195225755886 0
-0.00252479437468 -0.195615220927 0
0.00225577832331 -0.195731758916 0
-0.0010405911864 -0.179154988003 0
-0.00285771789702 -0.192323013837 0
0.00150654857038 -0.182040984825 0
0.00305324775077 -0.19582805802 0
0.000516628021042 -0.185954609491 0
-0.00145053355948 -0.181749198354 0
0.00302840486727 -0.19445866725 0
-0.00308312313709 -0.195899813505 0
0.00283763369206 -0.196023704462 0
0.000675550075409 -0.193213060108 0
0.00193957362102 -0.191599922302 0
0.00111734715407 -0.185901587478 0
-0.00266763829853 -0.194356563414 0
0.00240520793295 -0.19444111731 0
-0.00163490165131 -0.191636680356 0
-0.000222878604782 -0.182922500659 0
0.00129661911146 -0.191705131105 0
0.00051783402246 -0.185243137688 0
0.000463346228689 -0.178603185892 0
-0.00256443909198 -0.191118520644 0
-0.00151259916798 -0.185882085341 0
-0.000860366891684 -0.19143097517 0
0.000546603395605 -0.191474919589 0
0.00154233026595 -0.193128184551 0
-0.00158414703777 -0.189418460817 0
-0.000881986606009 -0.199243171797 0
-0.00193241505919 -0.195037115667 0
0.00164438555595 -0.195142229681 0
0.000764350274539 -0.179437156597 0
0.00121886514244 -0.189607251886 0
-0.00164730343814 -0.189554065364 0
-0.000474932023779 -0.18454399582 0
-0.000148476946599 -0.182989829819 0
-0.000649775913132 -0.198594544122 0
-0.000774081407921 -0.188767886609 0
-0.00114934719048 -0.191757145563 0
0.00255714994356 -0.19213770393 0
0.000405609364341 -0.190868017057 0
0.000437791204186 -0.188805368436 0
0.000159102230204 -0.184416943634 0
0.00346407942969 -0.195758266138 0
-0.00365981792823 -0.195665274722 0
-0.0012929461421 -0.187926964783 0
-0.00207257399031 -0.193590125179 0
0.00178625571938 -0.193658577672 0
0.00188250226294 -0.190089224162 0
-0.00151158214739 -0.19340961581 0
0.00119359176652 -0.19347782832 0
-0.0037726696439 -0.196074779579 0
0.00359939799962 -0.196176335026 0
-0.00140310295861 -0.187028160908 0