# vtk DataFile Version 2.0
Generated with Solid Solver
ASCII
DATASET UNSTRUCTURED_GRID
POINTS 999 float 
0.2 4.325 0.0
1.4 4.325 0.0
1.4 4.825 0.0
0.2 4.825 0.0
1.4 4.34523264049 0.0
1.4 4.36751203886 0.0
1.4 4.39204525371 0.0
1.4 4.4190602782 0.0
1.4 4.44880817466 0.0
1.4 4.48156541084 0.0
1.4 4.51763640748 0.0
1.4 4.5573564007 0.0
1.4 4.60109451608 0.0
1.4 4.64925723872 0.0
1.4 4.70229217343 0.0
1.4 4.76069218095 0.0
1.33333333333 4.825 0.0
1.26666666667 4.825 0.0
1.2 4.825 0.0
1.13333333333 4.825 0.0
1.06666666667 4.825 0.0
1.0 4.825 0.0
0.933333333334 4.825 0.0
0.866666666668 4.825 0.0
0.800000000001 4.825 0.0
0.733333333334 4.825 0.0
0.666666666668 4.825 0.0
0.600000000001 4.825 0.0
0.533333333334 4.825 0.0
0.466666666667 4.825 0.0
0.4 4.825 0.0
0.333333333334 4.825 0.0
0.266666666667 4.825 0.0
0.2 4.76069218095 0.0
0.2 4.70229217343 0.0
0.2 4.64925723872 0.0
0.2 4.60109451608 0.0
0.2 4.5573564007 0.0
0.2 4.51763640748 0.0
0.2 4.48156541084 0.0
0.2 4.44880817466 0.0
0.2 4.4190602782 0.0
0.2 4.39204525371 0.0
0.2 4.36751203886 0.0
0.2 4.34523264049 0.0
0.212131543907 4.30926329506 0.0
0.224675715302 4.29385348652 0.0
0.23762369102 4.27878141198 0.0
0.250966423879 4.26405760374 0.0
0.264694484585 4.24969246611 0.0
0.278798324214 4.23569599189 0.0
0.293267939266 4.22207810803 0.0
0.308093289028 4.20884826442 0.0
0.323263842145 4.19601585877 0.0
0.338769084145 4.18358978512 0.0
0.354597997314 4.17157887342 0.0
0.37073960121 4.15999145532 0.0
0.387182441982 4.14883575334 0.0
0.403915091795 4.13811952025 0.0
0.420925712897 4.12785033813 0.0
0.438202430937 4.11803537461 0.0
0.455733079095 4.10868154223 0.0
0.473505374364 4.09979539439 0.0
0.491506842655 4.09138316882 0.0
0.509724826085 4.0834507802 0.0
0.528146580414 4.07600377808 0.0
0.546759103951 4.06904741762 0.0
0.56554943677 4.06258654322 0.0
0.584504260001 4.05662573401 0.0
0.60361041518 4.0511691282 0.0
0.622854334779 4.04622060039 0.0
0.642222678753 4.04178358113 0.0
0.661701681839 4.03786122392 0.0
0.681277836375 4.03445624851 0.0
0.700937245817 4.03157107217 0.0
0.720666255912 4.02920769845 0.0
0.740450894784 4.02736780161 0.0
0.76027736978 4.02605266363 0.0
0.780131702711 4.02526321235 0.0
0.799999999998 4.025 0.0
0.819868297285 4.02526321235 0.0
0.839722630216 4.02605266363 0.0
0.859549105212 4.02736780161 0.0
0.879333744085 4.02920769845 0.0
0.89906275418 4.03157107217 0.0
0.918722163621 4.03445624851 0.0
0.938298318157 4.03786122392 0.0
0.957777321244 4.04178358113 0.0
0.977145665218 4.04622060039 0.0
0.996389584817 4.0511691282 0.0
1.01549574 4.05662573401 0.0
1.03445056323 4.06258654322 0.0
1.05324089605 4.06904741762 0.0
1.07185341958 4.07600377808 0.0
1.09027517391 4.0834507802 0.0
1.10849315734 4.09138316882 0.0
1.12649462563 4.09979539439 0.0
1.1442669209 4.10868154222 0.0
1.16179756906 4.1180353746 0.0
1.1790742871 4.12785033813 0.0
1.1960849082 4.13811952024 0.0
1.21281755802 4.14883575334 0.0
1.22926039879 4.15999145532 0.0
1.24540200269 4.17157887342 0.0
1.26123091585 4.18358978512 0.0
1.27673615785 4.19601585877 0.0
1.29190671097 4.20884826442 0.0
1.30673206073 4.22207810803 0.0
1.32120167579 4.23569599189 0.0
1.33530551541 4.24969246611 0.0
1.34903357612 4.26405760374 0.0
1.36237630898 4.27878141198 0.0
1.3753242847 4.29385348652 0.0
1.38786845609 4.30926329506 0.0
1.05632730172 4.46025283906 0.0
0.549964048968 4.4630053958 0.0
0.806135520676 4.31186690218 0.0
0.603895783049 4.26079310371 0.0
1.22984770884 4.38318704125 0.0
0.3703382852 4.38423552752 0.0
0.995322815839 4.25565031136 0.0
0.728315816804 4.1765935937 0.0
0.872128173905 4.17288724072 0.0
1.14059401893 4.27298468684 0.0
0.461553191009 4.27181671009 0.0
0.784706775856 4.56821390922 0.0
0.398287125272 4.57945970538 0.0
1.20625306554 4.58334743514 0.0
0.624100842742 4.1589824436 0.0
0.5257453845 4.18811776279 0.0
0.978502430793 4.15488737058 0.0
1.07419209812 4.18825154482 0.0
0.364313698077 4.28677035763 0.0
1.23509538257 4.28681716733 0.0
0.68124123937 4.39284548972 0.0
1.31679378691 4.35012066749 0.0
0.283206213094 4.35012066749 0.0
0.791498533126 4.11467141721 0.0
0.931481076052 4.3801344917 0.0
0.966719065571 4.62778042839 0.0
0.684451667517 4.11068036752 0.0
0.618335406951 4.62686910993 0.0
0.450982331762 4.19686171732 0.0
0.915674266355 4.10995633851 0.0
1.14900051594 4.19689012964 0.0
1.30193709687 4.4481448133 0.0
0.298574667609 4.44816296922 0.0
1.05734787542 4.34990107617 0.0
0.539273225177 4.35252599628 0.0
0.709896798149 4.27721026287 0.0
0.895708916005 4.26924194389 0.0
0.813273511364 4.43835766235 0.0
0.559289631452 4.13230879113 0.0
1.04001407307 4.13281539633 0.0
0.801161810585 4.23146244955 0.0
0.665113819616 4.52056650186 0.0
0.852577362173 4.09111846388 0.0
0.390256727869 4.2242806298 0.0
1.20974450479 4.22428104599 0.0
0.921542541183 4.52778058719 0.0
1.14030889032 4.36437344809 0.0
1.15600477272 4.46808538305 0.0
0.435243219029 4.4750581257 0.0
0.462045157798 4.36654654286 0.0
0.735806812738 4.08472269746 0.0
1.30082934537 4.29793772796 0.0
0.299170654625 4.29793772796 0.0
0.533651712118 4.26265983853 0.0
0.666130919144 4.21652131559 0.0
1.0676097303 4.26179469382 0.0
1.08054433577 4.58530946155 0.0
0.506773767255 4.56568295079 0.0
0.626745312844 4.10124420826 0.0
0.933845304214 4.2106954732 0.0
0.293717639664 4.55175000185 0.0
0.312505022079 4.66426411351 0.0
1.3058164124 4.55154930624 0.0
1.29054387065 4.66302765963 0.0
0.973467966326 4.09941619478 0.0
0.487935413164 4.15087084015 0.0
0.461549079751 4.68836834982 0.0
1.11203248746 4.15093503889 0.0
1.14453515393 4.70617370303 0.0
0.840217564202 4.68891146633 0.0
0.585347033288 4.20539048534 0.0
0.619177396637 4.34227576306 0.0
0.331644410315 4.24962190462 0.0
1.26835558968 4.24962190462 0.0
1.01536156978 4.19987473052 0.0
0.809331033562 4.07065709122 0.0
0.982321540791 4.33437358971 0.0
0.725600576914 4.66999651799 0.0
0.812291456186 4.16642942492 0.0
0.335887692543 4.33918235669 0.0
1.26344844681 4.34017131907 0.0
1.23449730504 4.49457441524 0.0
1.34334172095 4.40539551957 0.0
0.256658279045 4.40539551957 0.0
0.741646926828 4.34287908527 0.0
0.674799084703 4.16673768522 0.0
1.18647435526 4.30955189749 0.0
0.360563250283 4.49596479569 0.0
0.873716483853 4.33845499203 0.0
0.418704489949 4.31146264283 0.0
0.492670911224 4.22931614809 0.0
0.403480880356 4.19046776931 0.0
1.19651541215 4.1904686246 0.0
0.728649253738 4.46214546491 0.0
1.00883674467 4.40174664879 0.0
1.11035034557 4.23161841276 0.0
0.261968539765 4.3130079512 0.0
1.33803146023 4.3130079512 0.0
0.74649980488 4.1318354354 0.0
0.927597725248 4.1577597079 0.0
0.892956618256 4.07619338913 0.0
0.659794281787 4.07951387326 0.0
0.587663534405 4.09486537006 0.0
0.942353209926 4.07935300973 0.0
1.01493747319 4.09476013719 0.0
0.613130017774 4.41369803882 0.0
0.449373501074 4.15377191978 0.0
0.514840228377 4.12225850006 0.0
0.497057592 4.41333092106 0.0
1.15061382426 4.15379293084 0.0
1.08514419473 4.12228328152 0.0
0.745617635771 4.23098957592 0.0
0.87523452213 4.59853036549 0.0
0.855262884783 4.2258970831 0.0
1.01126200032 4.53280064162 0.0
1.09391916408 4.40632408872 0.0
1.04436265455 4.71482000827 0.0
0.314320181089 4.38773968607 0.0
1.28649331902 4.38743720145 0.0
0.771211579291 4.06316862024 0.0
0.432259099658 4.24006002157 0.0
0.698583889427 4.07144353526 0.0
1.16802128371 4.238862881 0.0
1.09587629216 4.3086676659 0.0
1.35920470355 4.35666960471 0.0
0.240795296449 4.35666960471 0.0
0.504003580654 4.30815758118 0.0
0.579942709371 4.5342075073 0.0
0.875915224914 4.12815792528 0.0
0.426503136644 4.40717733008 0.0
0.57541416445 4.30365301522 0.0
0.683877978289 4.33161848113 0.0
0.888061695889 4.44633509246 0.0
0.26012287522 4.49859249103 0.0
1.33987712478 4.49859249103 0.0
0.801393572636 4.37060096582 0.0
0.558460082533 4.72496728209 0.0
1.1741923373 4.41132830101 0.0
0.83220012886 4.12779415912 0.0
1.02815069622 4.30053276509 0.0
0.948308583502 4.2880204454 0.0
0.846588933095 4.50834596945 0.0
0.343666800815 4.43485820652 0.0
1.25632767671 4.43480360053 0.0
0.97849585731 4.47031535602 0.0
1.10170977548 4.51507265998 0.0
0.662193131828 4.26809398492 0.0
0.400503668388 4.26881657105 0.0
1.20117145985 4.26130427377 0.0
0.350957892513 4.21796558019 0.0
1.24904210749 4.21796558019 0.0
0.771964652188 4.18905379403 0.0
0.932165148285 4.72736281402 0.0
0.373672364094 4.73321357765 0.0
0.760245937722 4.28409350779 0.0
0.848718469252 4.05767763075 0.0
1.23385612561 4.7358294747 0.0
0.846421485813 4.28065918421 0.0
0.651597058631 4.13043284014 0.0
0.650489852552 4.72138045504 0.0
0.58457834847 4.16375088261 0.0
0.48701309933 4.18859927013 0.0
0.708495738406 4.58856947756 0.0
1.11203398596 4.18878062515 0.0
0.54865558244 4.10250047869 0.0
1.05126102377 4.10234629471 0.0
0.300013757486 4.26259646442 0.0
1.29998624251 4.26259646442 0.0
0.9465032388 4.12718070354 0.0
0.708587583337 4.14146095907 0.0
0.973348904468 4.19537871864 0.0
0.628721855632 4.19538356945 0.0
0.380175010018 4.34021880077 0.0
0.662092932411 4.45899041267 0.0
1.05133526787 4.22221992007 0.0
0.528087045766 4.64327882187 0.0
1.22233124543 4.33521693908 0.0
1.19001193434 4.36273586668 0.0
0.853024099244 4.39544003492 0.0
0.542800296246 4.22324366905 0.0
0.247706318737 4.45239119247 0.0
1.35229368126 4.45239119247 0.0
0.599153768578 4.12953797005 0.0
1.01616570494 4.16227683178 0.0
0.744705786938 4.40569544575 0.0
1.31929001115 4.73702550052 0.0
0.777615355331 4.15113602511 0.0
1.33132411895 4.60631378639 0.0
0.265621610877 4.60975488866 0.0
0.532023338888 4.15374454388 0.0
1.0697792195 4.15241429251 0.0
0.286371037106 4.73010312914 0.0
0.497725885905 4.50153668256 0.0
0.46053455822 4.31587947599 0.0
0.433799237968 4.54629400991 0.0
0.388624781906 4.65094200004 0.0
0.554823673752 4.40451940232 0.0
1.1421595646 4.31818301431 0.0
1.14760043966 4.61655103139 0.0
1.21258698805 4.65320200685 0.0
1.16279096046 4.53292621409 0.0
0.995762647814 4.12508772517 0.0
0.456229040627 4.61456685246 0.0
0.707289391156 4.21520271873 0.0
0.763036833302 4.74285445535 0.0
0.78386198569 4.49787013126 0.0
[...]
POINT_DATA 999
VECTORS Displacement float
0.597985297792 -0.157456904615 0
0.602150940554 -0.157389605184 0
0.6 -0.16 0
0.6 -0.16 0
0.602302809235 -0.157377811135 0
0.602449300385 -0.157361418776 0
0.602579896143 -0.157341441679 0
0.602689145651 -0.157331073727 0
0.602751574822 -0.157337312257 0
0.602786219828 -0.157367677299 0
0.60275095879 -0.157428595722 0
0.602639731195 -0.157527583167 0
0.602441167261 -0.157694805302 0
0.602118409085 -0.157949283126 0
0.601656623876 -0.158339322298 0
0.600997581053 -0.158941146897 0
0.6 -0.16 0
0.6 -0.16 0
0.6 -0.16 0
0.6 -0.16 0
0.6 -0.16 0
0.6 -0.16 0
0.6 -0.16 0
0.6 -0.16 0
0.6 -0.16 0
0.6 -0.16 0
0.6 -0.16 0
0.6 -0.16 0
0.6 -0.16 0
0.6 -0.16 0
0.6 -0.16 0
0.6 -0.16 0
0.6 -0.16 0
0.599027151263 -0.158967741588 0
0.598383707014 -0.158379505844 0
0.597916040545 -0.157995955075 0
0.597616667943 -0.15774426266 0
0.597432345701 -0.157580574611 0
0.597330995584 -0.157484979391 0
0.597305500174 -0.157427760359 0
0.59734955447 -0.157399949591 0
0.5974205698 -0.157395505725 0
0.59753756567 -0.157407142334 0
0.597675170827 -0.157427939114 0
0.597827922294 -0.157444855141 0
0.598114823796 -0.157373231171 0
0.598256886609 -0.157280915158 0
0.598410397786 -0.157173990293 0
0.598578166061 -0.157052510823 0
0.598759114161 -0.156911530251 0
0.598948383508 -0.156747717154 0
0.599148081485 -0.156563438987 0
0.599365706159 -0.156356361255 0
0.599597690968 -0.156110779097 0
0.599833574256 -0.155845593277 0
0.600084086391 -0.155542901206 0
0.600357041969 -0.155201607332 0
0.600637686591 -0.154807839602 0
0.600938852883 -0.154362521482 0
0.601257160481 -0.153849910833 0
0.601614307939 -0.153229990014 0
0.601996260228 -0.152424872024 0
0.602356428958 -0.151494546751 0
0.60262106609 -0.150573380856 0
0.602810842968 -0.149664279685 0
0.602934609528 -0.148801145614 0
0.602986165931 -0.147970108237 0
0.602986569152 -0.147201925852 0
0.602931232322 -0.146470131677 0
0.602832639785 -0.145800410145 0
0.602682303325 -0.145178989975 0
0.60250096423 -0.144622821362 0
0.602280932185 -0.144124965906 0
0.602040931206 -0.143694353105 0
0.601765818147 -0.143316968622 0
0.601473560178 -0.143010292668 0
0.601154071148 -0.142761455606 0
0.600827215326 -0.142574731875 0
0.600487883437 -0.142441741561 0
0.60011840649 -0.142416016159 0
0.599752687591 -0.142481422474 0
0.599405201112 -0.142596371011 0
0.599074960573 -0.142774564325 0
0.598760689908 -0.143018313067 0
0.598464492679 -0.143324194651 0
0.598186088671 -0.143698423666 0
0.597933341471 -0.144139292652 0
0.597721469537 -0.144630331549 0
0.597539447163 -0.145187381789 0
0.59738880639 -0.145813848119 0
0.597289948071 -0.146489128289 0
0.597233902095 -0.147221291313 0
0.597232653922 -0.147993665407 0
0.597285721116 -0.148827195771 0
0.597408650015 -0.149688192002 0
0.5975993485 -0.150599317403 0
0.597865232215 -0.151521571906 0
0.59822790139 -0.15245121172 0
0.598599242423 -0.153232527975 0
0.598948913885 -0.153841169939 0
0.599260833137 -0.154346173573 0
0.599556203126 -0.15478547043 0
0.599831567118 -0.155174120734 0
0.60009954258 -0.155511000762 0
0.600345410502 -0.155809657216 0
0.60057683583 -0.156071119621 0
0.600804389249 -0.156313131441 0
0.601017656092 -0.156516848026 0
0.601213078562 -0.156697950852 0
0.601398121801 -0.156858696914 0
0.601574852262 -0.156996712014 0
0.601738410127 -0.157115303452 0
0.60188773272 -0.157219408489 0
0.602025640093 -0.157308894835 0
0.601924555834 -0.154705436007 0
0.598212856216 -0.154692103672 0
0.600116761781 -0.149559953328 0
0.599066699635 -0.150113595294 0
0.602452344489 -0.155917459892 0
0.597664897111 -0.155948379061 0
0.601061152945 -0.149991512533 0
0.600073926758 -0.146345866177 0
0.60009673379 -0.146263189094 0
0.601668940663 -0.153503482687 0
0.598499144749 -0.153448142765 0
0.599929332888 -0.15549930351 0
0.597925800664 -0.157452766663 0
0.602123908076 -0.157500060405 0
0.600287605046 -0.147471446699 0
0.599713321043 -0.150636030515 0
0.599842337748 -0.147452870574 0
0.600479119939 -0.150643306999 0
0.598311754002 -0.155536396052 0
0.601834792583 -0.1554965453 0
0.599096722294 -0.152048448165 0
0.602340243264 -0.156733452398 0
0.597788454639 -0.156779480638 0
0.600154778685 -0.144489376965 0
0.601113981147 -0.151869408609 0
0.600972100183 -0.156975711409 0
0.600810426692 -0.145270783312 0
0.598994052975 -0.157015803457 0
0.599504500096 -0.153087120365 0
0.599388789445 -0.145260144801 0
0.60067567782 -0.153085052525 0
0.602683133897 -0.156950177596 0
0.597417716017 -0.15698645717 0
0.601845688989 -0.152895320082 0
0.598262680274 -0.152996500888 0
0.599539637871 -0.149050950038 0
0.6006252744 -0.148907567363 0
0.600167087226 -0.152660871986 0
0.600921406476 -0.148616117408 0
0.599299981544 -0.14861715775 0
0.600091911976 -0.147474209335 0
0.599021650269 -0.154856789007 0
0.599663113845 -0.144114005502 0
0.599085704578 -0.15482728146 0
0.601080580813 -0.154806563602 0
0.600952888492 -0.154933094986 0
0.602209353127 -0.15447237837 0
0.602346441035 -0.155868775026 0
0.597717444187 -0.156048333172 0
0.597917784412 -0.154467955174 0
0.600700384941 -0.14405192754 0
0.601930067149 -0.156473791655 0
0.598213466001 -0.156517556824 0
0.598761031198 -0.151629533466 0
0.599675018955 -0.148061044614 0
0.601395945712 -0.151645240692 0
0.601681542583 -0.156830190363 0
0.598245241499 -0.156632624057 0
0.601344187544 -0.146163002096 0
0.600458574446 -0.147925442803 0
0.597552413183 -0.157605413859 0
0.598292418798 -0.158489860309 0
0.602519563968 -0.157571454996 0
0.601766560309 -0.158459622413 0
0.598833689283 -0.146141241344 0
0.600497761213 -0.151397987617 0
0.59878793749 -0.158449364624 0
0.599703897981 -0.151412493043 0
0.601122580721 -0.158675950513 0
0.600201321042 -0.157811737445 0
0.599561438301 -0.149346713899 0
0.598743142841 -0.151595229798 0
0.598757859937 -0.155996218949 0
0.601400008739 -0.155959408158 0
0.600549851001 -0.149258549996 0
0.600009115002 -0.143438523682 0
0.601379099523 -0.15145508857 0
0.599648749144 -0.15750988632 0
0.600089566858 -0.145800222439 0
0.597868366914 -0.156155488748 0
0.602268678531 -0.156116258559 0
0.602532554434 -0.156814196239 0
0.602623071743 -0.157055721197 0
0.59748984762 -0.157106144818 0
0.599620016132 -0.150478897362 0
0.600159700479 -0.146731777085 0
0.602016869945 -0.154753762325 0
0.597538054308 -0.156883431741 0
0.600631869617 -0.150453643424 0
0.598114896308 -0.154692274775 0
0.599018248066 -0.152183811503 0
0.599667473262 -0.154422237695 0
0.600510504267 -0.154404788942 0
0.599467345455 -0.153339622107 0
0.601663479835 -0.153137310774 0
0.601184651179 -0.15229780665 0
0.598078652051 -0.156941438724 0
0.602060586237 -0.156889180058 0
0.600310103754 -0.145091581869 0
0.599938274056 -0.146558135832 0
0.599145573513 -0.144178607402 0
0.601501378652 -0.145001510842 0
0.601777883945 -0.147052183606 0
0.598693929243 -0.14505078044 0
0.59841690959 -0.147143961662 0
0.598589695052 -0.153127855144 0
0.600445673049 -0.152886246805 0
0.601320501958 -0.149982186332 0
0.597945322528 -0.154554083175 0
0.599748853222 -0.152890035944 0
0.598891836 -0.15000236435 0
0.599875046613 -0.14761843008 0
0.600519756115 -0.156176806463 0
0.600289734459 -0.147494632648 0
0.601514665247 -0.155554174868 0
0.60211912452 -0.154323689017 0
0.6008398786 -0.15856178923 0
0.597594958804 -0.156590994327 0
0.602522150713 -0.156559493066 0
0.600457171244 -0.143317228289 0
0.598837984681 -0.153894796546 0
0.601226050618 -0.144181751378 0
0.601308419234 -0.153882188866 0
0.6018262553 -0.152963037578 0
0.602387210945 -0.157092825831 0
0.597739933976 -0.157148919701 0
0.598321333488 -0.152964209729 0
0.598517689419 -0.155644784416 0
0.599782075379 -0.145190614571 0
0.597710108825 -0.15542228492 0
0.598648878007 -0.151500632205 0
0.59921227434 -0.150612202697 0
0.600781181296 -0.153053769057 0
0.597368799533 -0.157387642524 0
0.602715386855 -0.157344358502 0
0.600077027254 -0.151031681021 0
0.599257653763 -0.158694406858 0
0.602405513864 -0.155458830777 0
0.59996453077 -0.144873921207 0
0.601502471339 -0.151506497671 0
0.601000826954 -0.149961512696 0
0.600413554621 -0.154277728711 0
0.59749752011 -0.156562547099 0
0.602606069805 -0.156531313044 0
0.601433910015 -0.154159481029 0
0.602031611427 -0.15596730381 0
0.599313128242 -0.149350635302 0
0.598496171305 -0.154777780425 0
0.601572870679 -0.154757528901 0
0.5992130237 -0.155628707399 0
0.60095500718 -0.155596381541 0
0.600059527037 -0.146415395899 0
0.600452585269 -0.158554814809 0
0.599031307214 -0.159113361699 0
0.599831128418 -0.148921391856 0
0.599486264416 -0.143328006078 0
0.600966533914 -0.159138253188 0
0.600362922358 -0.148861114271 0
0.600680253705 -0.146275369227 0
0.599494365245 -0.158488402417 0
0.600215409208 -0.148511620113 0
0.59965852512 -0.151867703044 0
0.599427401894 -0.156027399178 0
0.600531967561 -0.151845116894 0
0.601822021118 -0.148435344423 0
0.598389546791 -0.148449809088 0
0.598599518695 -0.156476843809 0
0.601554335832 -0.156432520115 0
0.599479122778 -0.146179078095 0
0.600363988053 -0.14567803735 0
0.600401574555 -0.148246443328 0
0.599790646143 -0.148198252468 0
0.597889476434 -0.155537459666 0
0.598946931565 -0.153625029479 0
0.600932754741 -0.150573793956 0
0.598687538379 -0.157627929786 0
0.602215170401 -0.155519032021 0
0.60231402184 -0.155225308935 0
0.600500295763 -0.151734420115 0
0.599213704329 -0.150742978397 0
0.597360956529 -0.15726630802 0
0.602738078009 -0.157216078863 0
0.600875485205 -0.147430563632 0
0.599955034388 -0.148508622205 0
0.599600389447 -0.15198384726 0
0.601053495543 -0.159121280115 0
0.600142903584 -0.145425541647 0
0.602286058464 -0.157952985962 0
0.597783161177 -0.158009426471 0
0.600426162753 -0.149869303924 0
0.59974343957 -0.149923310653 0
0.598907125793 -0.159081206599 0
0.598012382114 -0.155789874714 0
0.598155196671 -0.153928211226 0
0.597888571968 -0.156878934558 0
0.598345765643 -0.158242622625 0
0.598238462404 -0.153650028824 0
0.602006148012 -0.153995004043 0
0.601763300398 -0.157602762245 0
0.601680933293 -0.158255460048 0
0.602219813658 -0.156683171674 0
0.599255794278 -0.147213306949 0
0.59829035506 -0.157570110853 0
0.599811970084 -0.147521027098 0
0.599897282721 -0.15873131349 0
0.599917741756 -0.154012742051 0
0.600996019516 -0.150742373691 0
0.600273263869 -0.153896970233 0
0.600339696191 -0.147404358576 0
0.59991605464 -0.153886852695 0
0.602636951179 -0.157147500744 0
0.600937325104 -0.143528506424 0
0.598349125544 -0.156093952522 0
0.601798545671 -0.156056849523 0
0.599610767811 -0.155159081778 0
0.600565140483 -0.155132628382 0
0.598579291832 -0.154390681759 0
0.597782607636 -0.155275526173 0
0.600381847886 -0.144062612968 0
0.599396232721 -0.154967781918 0
0.598700974128 -0.155417965772 0
0.601456551559 -0.155387881874 0
0.597452503795 -0.157150468163 0
0.602515067399 -0.15621902711 0
0.600795553195 -0.149061631098 0
0.598356568172 -0.156823105393 0
0.601790903543 -0.156772665097 0
0.6012384757 -0.157933382351 0
0.597592944469 -0.156230087542 0
0.597925751041 -0.157180644242 0
0.602208480646 -0.157122562373 0
0.601912065293 -0.14582766953 0
0.600165202409 -0.146691093321 0
0.602164696303 -0.157884927801 0
0.597882826864 -0.157905497008 0
0.598640290529 -0.152527992605 0
0.600669287012 -0.144813029323 0
0.60009826874 -0.148286214788 0
0.599943244191 -0.144138275022 0
0.602048927053 -0.153692852203 0
0.601531355299 -0.152566619227 0
0.598972700886 -0.150524224235 0
0.598715851019 -0.144217951944 0
0.598343155678 -0.145866833478 0
0.60217880006 -0.155348360503 0
0.597907578894 -0.156521661473 0
0.602226072398 -0.156479236466 0
0.601021490349 -0.155893005969 0
0.598076152762 -0.153719970988 0
0.599002849241 -0.150525182643 0
0.600187561737 -0.149467725934 0
0.598950155626 -0.155879112051 0
0.599919603018 -0.157033097289 0
0.601100804129 -0.151606621935 0
0.599109263891 -0.151625640794 0
0.598952820876 -0.1530797706 0
0.601158444671 -0.15306412714 0
0.597446366379 -0.157597164238 0
0.602627751536 -0.157555129045 0
0.599332681387 -0.149260384241 0
0.601193331361 -0.150661330592 0
0.599881844783 -0.149667782515 0
0.601335855181 -0.156772472795 0
0.599176130997 -0.143573049152 0
0.601179577409 -0.153146848435 0
0.602536824115 -0.157176335925 0
0.597582872863 -0.157233957009 0
0.599369265846 -0.153924773322 0
0.599506246985 -0.144604913571 0
0.600804520014 -0.153912994263 0
0.599573689677 -0.148418773574 0
0.600564527363 -0.15740045935 0
0.600645647193 -0.159199918591 0
0.601907131252 -0.15364167311 0
0.598448595322 -0.152564824757 0
0.602534690044 -0.156810598159 0
0.597583677867 -0.15685537862 0
0.602401765068 -0.157349258193 0
0.597659016931 -0.157347999788 0
0.599770574706 -0.145774857142 0
0.601795517092 -0.154249647087 0
0.601675429471 -0.1442864858 0
0.600201236294 -0.142953146603 0
0.600038452749 -0.145679617548 0
0.597787337391 -0.155342516212 0
0.598366646781 -0.154375812452 0
0.599102407295 -0.156039719387 0
0.601062936423 -0.156001559062 0
0.600334207223 -0.150563476207 0
0.600548226695 -0.14821238713 0
0.599756513151 -0.143115393452 0
0.601763994097 -0.158482817845 0
0.598047953937 -0.155936223622 0
0.602079389408 -0.155904815215 0
0.601581957891 -0.152203267463 0
0.598135800861 -0.158380257209 0
0.599405629659 -0.159252305619 0
0.602284362191 -0.154851087366 0
0.598594951656 -0.156890659632 0
0.600087161574 -0.147345915601 0
0.601405080381 -0.152151291296 0
0.601636496093 -0.152118258086 0
0.600712980223 -0.149126322119 0
0.601268692555 -0.150695650224 0
0.598815811359 -0.152168444815 0
0.59769841846 -0.156703030922 0
0.601115553341 -0.145678213421 0
0.600803011586 -0.146892335746 0
0.597741832954 -0.156501065827 0
0.602383729479 -0.156471359849 0
0.598888765957 -0.156340537967 0
0.601271710251 -0.156298010759 0
0.600137913746 -0.146708562588 0
0.601915878131 -0.15510928835 0
0.601820876379 -0.155553481501 0
0.600117004807 -0.147371614023 0
0.598497379736 -0.152159352274 0
0.599620185883 -0.149504364182 0
0.598074477883 -0.155274041997 0
0.597890041416 -0.156993167278 0
0.602242802193 -0.156940699167 0
0.600198422742 -0.15887015533 0
0.600113975005 -0.150786957384 0
0.600062332362 -0.152207282649 0
0.597836998929 -0.154849688979 0
0.600585470904 -0.149480933153 0
0.599060185699 -0.145672639017 0
0.597980229825 -0.155073107766 0
0.600923523245 -0.151257040617 0
0.600659894936 -0.159347884457 0
0.602245299623 -0.147667275171 0
0.60013549797 -0.152219608678 0
0.599382213034 -0.157272237349 0
0.600166358838 -0.145671114577 0
0.600149859256 -0.15089482629 0
0.599943262107 -0.14810352198 0
0.602060176802 -0.149168213555 0
0.59793410247 -0.147690306452 0
0.59928860644 -0.151254691109 0
0.598156134255 -0.149189163776 0
0.60009306532 -0.145113557753 0
0.600241333995 -0.148056467717 0
0.600240056625 -0.143690839173 0
0.602692596297 -0.15720792701 0
0.59741504762 -0.157262701071 0
0.602283042378 -0.146268217549 0
0.60206873903 -0.145161637938 0
0.599792480107 -0.159136001645 0
0.59816564391 -0.14516497727 0
0.597942546203 -0.146313809789 0
0.601715712562 -0.150890391755 0
0.601156043273 -0.152479721191 0
0.599996692647 -0.146858806433 0
0.598501725074 -0.150913081778 0
0.599051603623 -0.152494630748 0
0.602435437529 -0.156450969065 0
0.601116437738 -0.157595513885 0
0.599911843128 -0.150333699439 0
0.600808725022 -0.143081590891 0
0.599081577469 -0.144680931732 0
0.601313057743 -0.143526911232 0
0.600487024876 -0.145967710603 0
0.602336302138 -0.155858595677 0
0.602529815686 -0.15700232013 0
0.597589852967 -0.157053384368 0
0.598248171078 -0.15550952442 0
0.6026283752 -0.156798417773 0
0.597481147801 -0.156838759864 0
0.60030865297 -0.155372939694 0
0.599274994158 -0.149697523043 0
0.600402869703 -0.159124418939 0
0.599753658978 -0.143724255038 0
0.600752535221 -0.151519581828 0
0.600108367872 -0.154745739865 0
0.600076696627 -0.154724365922 0
0.597686642916 -0.156242896924 0
0.600844153745 -0.149837234902 0
0.599070654444 -0.147810066849 0
0.59996748748 -0.148271420427 0
0.601941957142 -0.156957249293 0
0.59997466174 -0.146862604891 0
0.599295643064 -0.149773575033 0
0.601181075593 -0.144779539412 0
0.600104289156 -0.146540383298 0
0.59760521198 -0.155975615751 0
0.599291044784 -0.152556748797 0
0.599829078154 -0.144812665364 0
0.599792303425 -0.152870452425 0
0.599308267157 -0.151149481464 0
0.601238855624 -0.149097293728 0
0.599821980738 -0.153740955129 0
0.60036066482 -0.153732300059 0
0.598974574799 -0.149114542934 0
0.600342623936 -0.149703661165 0
0.600461064365 -0.14447803491 0
0.601402789383 -0.147969155088 0
0.602645783511 -0.156851627649 0
0.59745053003 -0.156866105965 0
0.599412447321 -0.159404207686 0
0.600185664728 -0.148296193413 0
0.602500378106 -0.15593729955 0
0.60027887812 -0.144588911401 0
0.598794067318 -0.143748475229 0
0.597957074202 -0.1567655448 0
0.602177884301 -0.156718156273 0
0.598212982684 -0.15709698911 0
0.601930397998 -0.157040455475 0
0.599459192338 -0.144105544632 0
0.597920166165 -0.154810361037 0
0.601272385667 -0.146870331457 0
0.602356523401 -0.157097825632 0
0.600921696118 -0.150017042807 0
0.599297038288 -0.146528959736 0
0.602435256911 -0.156211777379 0
0.597829727915 -0.157280827504 0
0.602300982186 -0.157219800396 0
0.60062456488 -0.155081267551 0
0.601674902604 -0.154007615225 0
0.600682288435 -0.150442605028 0
0.598109200919 -0.156260272474 0
0.602031361519 -0.156221159191 0
0.598790944375 -0.154515009312 0
0.600008821481 -0.147138931278 0
0.601340245371 -0.154517930028 0
0.60079076802 -0.149149005078 0
0.600652889939 -0.143591809042 0
0.598092153147 -0.153789894833 0
0.599531066489 -0.150484867495 0
0.599327362613 -0.154451978805 0
0.600844268534 -0.154433849516 0
0.601307855982 -0.155067851998 0
0.598749633289 -0.152874316546 0
0.599369902906 -0.159481432811 0
0.598615844146 -0.156722284269 0
0.60153825395 -0.156673359664 0
0.600847706438 -0.144343080565 0
0.60066930968 -0.153541851708 0
0.599527014097 -0.153537216623 0
0.599745170216 -0.148470684001 0
0.599920144271 -0.147357153034 0
0.599528652817 -0.159002076891 0
0.599301294826 -0.152557208268 0
0.599195504153 -0.1540226889 0
0.602178145778 -0.154643489926 0
0.600457227414 -0.153333636065 0
0.600877784637 -0.152603582925 0
0.600431514979 -0.148381166535 0
0.60269066221 -0.157049927768 0
0.597414225366 -0.157095925131 0
0.598922076599 -0.151687362139 0
0.598516978859 -0.155777459085 0
0.601633751568 -0.155737931899 0
0.601792573629 -0.15323611576 0
0.598902025803 -0.155678914116 0
0.601247934291 -0.155637239088 0
0.59733467831 -0.157363665466 0
0.60275733421 -0.157313470341 0
0.59889389105 -0.150665271302 0
0.600747335977 -0.158020476989 0
0.602346247089 -0.155394689866 0
0.600739280674 -0.154097509522 0
0.601423682225 -0.152932214444 0
0.600226108874 -0.146907803349 0
0.599516301069 -0.149912898387 0
0.59835486038 -0.144499073347 0
0.601652678603 -0.154820358005 0
0.602544563197 -0.156283315175 0
0.597566248293 -0.156315317206 0
0.598254476924 -0.154868197142 0
0.598358586805 -0.153234149357 0
0.600613987954 -0.148539091716 0
0.598930694802 -0.152905120921 0
0.599960379735 -0.145984416666 0
0.601379225281 -0.152761843516 0
0.600904914859 -0.152366638783 0
0.599755277507 -0.15620139934 0
0.601264192951 -0.151798089277 0
0.601579509713 -0.145550683195 0
0.601666825871 -0.152203243996 0
0.602321096366 -0.155039851444 0
0.600266526607 -0.156908734754 0
0.598588413133 -0.151853335036 0
0.599768284043 -0.151164707095 0
0.599210576832 -0.15812981394 0
0.598712756085 -0.155098713824 0
0.598741994118 -0.151330547496 0
0.599726656397 -0.14805630539 0
0.598947285569 -0.151392248312 0
0.598367330035 -0.153971210572 0
0.598631950402 -0.145554354198 0
0.598558444128 -0.146514898464 0
0.597698074618 -0.157307437821 0
0.602427402192 -0.157245870878 0
0.60272899467 -0.157190513888 0
0.597364234909 -0.157234964719 0
0.600459258146 -0.142877525696 0
0.600245795178 -0.145672381538 0
0.600624407041 -0.152114039307 0
0.600211037548 -0.147250507248 0
0.601612292444 -0.156199678116 0
0.59894541305 -0.158402946979 0
0.602418855852 -0.155578710426 0
0.600414460552 -0.147867995294 0
0.60055278424 -0.150129688049 0
0.601155522061 -0.150753872028 0
0.598715381312 -0.15349625514 0