# vtk DataFile Version 2.0
Generated with Solid Solver
ASCII
DATASET UNSTRUCTURED_GRID
POINTS 999 float 
0.2 4.325 0.0
1.4 4.325 0.0
1.4 4.825 0.0
0.2 4.825 0.0
1.4 4.34523264049 0.0
1.4 4.36751203886 0.0
1.4 4.39204525371 0.0
1.4 4.4190602782 0.0
1.4 4.44880817466 0.0
1.4 4.48156541084 0.0
1.4 4.51763640748 0.0
1.4 4.5573564007 0.0
1.4 4.60109451608 0.0
1.4 4.64925723872 0.0
1.4 4.70229217343 0.0
1.4 4.76069218095 0.0
1.33333333333 4.825 0.0
1.26666666667 4.825 0.0
1.2 4.825 0.0
1.13333333333 4.825 0.0
1.06666666667 4.825 0.0
1.0 4.825 0.0
0.933333333334 4.825 0.0
0.866666666668 4.825 0.0
0.800000000001 4.825 0.0
0.733333333334 4.825 0.0
0.666666666668 4.825 0.0
0.600000000001 4.825 0.0
0.533333333334 4.825 0.0
0.466666666667 4.825 0.0
0.4 4.825 0.0
0.333333333334 4.825 0.0
0.266666666667 4.825 0.0
0.2 4.76069218095 0.0
0.2 4.70229217343 0.0
0.2 4.64925723872 0.0
0.2 4.60109451608 0.0
0.2 4.5573564007 0.0
0.2 4.51763640748 0.0
0.2 4.48156541084 0.0
0.2 4.44880817466 0.0
0.2 4.4190602782 0.0
0.2 4.39204525371 0.0
0.2 4.36751203886 0.0
0.2 4.34523264049 0.0
0.212131543907 4.30926329506 0.0
0.224675715302 4.29385348652 0.0
0.23762369102 4.27878141198 0.0
0.250966423879 4.26405760374 0.0
0.264694484585 4.24969246611 0.0
0.278798324214 4.23569599189 0.0
0.293267939266 4.22207810803 0.0
0.308093289028 4.20884826442 0.0
0.323263842145 4.19601585877 0.0
0.338769084145 4.18358978512 0.0
0.354597997314 4.17157887342 0.0
0.37073960121 4.15999145532 0.0
0.387182441982 4.14883575334 0.0
0.403915091795 4.13811952025 0.0
0.420925712897 4.12785033813 0.0
0.438202430937 4.11803537461 0.0
0.455733079095 4.10868154223 0.0
0.473505374364 4.09979539439 0.0
0.491506842655 4.09138316882 0.0
0.509724826085 4.0834507802 0.0
0.528146580414 4.07600377808 0.0
0.546759103951 4.06904741762 0.0
0.56554943677 4.06258654322 0.0
0.584504260001 4.05662573401 0.0
0.60361041518 4.0511691282 0.0
0.622854334779 4.04622060039 0.0
0.642222678753 4.04178358113 0.0
0.661701681839 4.03786122392 0.0
0.681277836375 4.03445624851 0.0
0.700937245817 4.03157107217 0.0
0.720666255912 4.02920769845 0.0
0.740450894784 4.02736780161 0.0
0.76027736978 4.02605266363 0.0
0.780131702711 4.02526321235 0.0
0.799999999998 4.025 0.0
0.819868297285 4.02526321235 0.0
0.839722630216 4.02605266363 0.0
0.859549105212 4.02736780161 0.0
0.879333744085 4.02920769845 0.0
0.89906275418 4.03157107217 0.0
0.918722163621 4.03445624851 0.0
0.938298318157 4.03786122392 0.0
0.957777321244 4.04178358113 0.0
0.977145665218 4.04622060039 0.0
0.996389584817 4.0511691282 0.0
1.01549574 4.05662573401 0.0
1.03445056323 4.06258654322 0.0
1.05324089605 4.06904741762 0.0
1.07185341958 4.07600377808 0.0
1.09027517391 4.0834507802 0.0
1.10849315734 4.09138316882 0.0
1.12649462563 4.09979539439 0.0
1.1442669209 4.10868154222 0.0
1.16179756906 4.1180353746 0.0
1.1790742871 4.12785033813 0.0
1.1960849082 4.13811952024 0.0
1.21281755802 4.14883575334 0.0
1.22926039879 4.15999145532 0.0
1.24540200269 4.17157887342 0.0
1.26123091585 4.18358978512 0.0
1.27673615785 4.19601585877 0.0
1.29190671097 4.20884826442 0.0
1.30673206073 4.22207810803 0.0
1.32120167579 4.23569599189 0.0
1.33530551541 4.24969246611 0.0
1.34903357612 4.26405760374 0.0
1.36237630898 4.27878141198 0.0
1.3753242847 4.29385348652 0.0
1.38786845609 4.30926329506 0.0
1.05632730172 4.46025283906 0.0
0.549964048968 4.4630053958 0.0
0.806135520676 4.31186690218 0.0
0.603895783049 4.26079310371 0.0
1.22984770884 4.38318704125 0.0
0.3703382852 4.38423552752 0.0
0.995322815839 4.25565031136 0.0
0.728315816804 4.1765935937 0.0
0.872128173905 4.17288724072 0.0
1.14059401893 4.27298468684 0.0
0.461553191009 4.27181671009 0.0
0.784706775856 4.56821390922 0.0
0.398287125272 4.57945970538 0.0
1.20625306554 4.58334743514 0.0
0.624100842742 4.1589824436 0.0
0.5257453845 4.18811776279 0.0
0.978502430793 4.15488737058 0.0
1.07419209812 4.18825154482 0.0
0.364313698077 4.28677035763 0.0
1.23509538257 4.28681716733 0.0
0.68124123937 4.39284548972 0.0
1.31679378691 4.35012066749 0.0
0.283206213094 4.35012066749 0.0
0.791498533126 4.11467141721 0.0
0.931481076052 4.3801344917 0.0
0.966719065571 4.62778042839 0.0
0.684451667517 4.11068036752 0.0
0.618335406951 4.62686910993 0.0
0.450982331762 4.19686171732 0.0
0.915674266355 4.10995633851 0.0
1.14900051594 4.19689012964 0.0
1.30193709687 4.4481448133 0.0
0.298574667609 4.44816296922 0.0
1.05734787542 4.34990107617 0.0
0.539273225177 4.35252599628 0.0
0.709896798149 4.27721026287 0.0
0.895708916005 4.26924194389 0.0
0.813273511364 4.43835766235 0.0
0.559289631452 4.13230879113 0.0
1.04001407307 4.13281539633 0.0
0.801161810585 4.23146244955 0.0
0.665113819616 4.52056650186 0.0
0.852577362173 4.09111846388 0.0
0.390256727869 4.2242806298 0.0
1.20974450479 4.22428104599 0.0
0.921542541183 4.52778058719 0.0
1.14030889032 4.36437344809 0.0
1.15600477272 4.46808538305 0.0
0.435243219029 4.4750581257 0.0
0.462045157798 4.36654654286 0.0
0.735806812738 4.08472269746 0.0
1.30082934537 4.29793772796 0.0
0.299170654625 4.29793772796 0.0
0.533651712118 4.26265983853 0.0
0.666130919144 4.21652131559 0.0
1.0676097303 4.26179469382 0.0
1.08054433577 4.58530946155 0.0
0.506773767255 4.56568295079 0.0
0.626745312844 4.10124420826 0.0
0.933845304214 4.2106954732 0.0
0.293717639664 4.55175000185 0.0
0.312505022079 4.66426411351 0.0
1.3058164124 4.55154930624 0.0
1.29054387065 4.66302765963 0.0
0.973467966326 4.09941619478 0.0
0.487935413164 4.15087084015 0.0
0.461549079751 4.68836834982 0.0
1.11203248746 4.15093503889 0.0
1.14453515393 4.70617370303 0.0
0.840217564202 4.68891146633 0.0
0.585347033288 4.20539048534 0.0
0.619177396637 4.34227576306 0.0
0.331644410315 4.24962190462 0.0
1.26835558968 4.24962190462 0.0
1.01536156978 4.19987473052 0.0
0.809331033562 4.07065709122 0.0
0.982321540791 4.33437358971 0.0
0.725600576914 4.66999651799 0.0
0.812291456186 4.16642942492 0.0
0.335887692543 4.33918235669 0.0
1.26344844681 4.34017131907 0.0
1.23449730504 4.49457441524 0.0
1.34334172095 4.40539551957 0.0
0.256658279045 4.40539551957 0.0
0.741646926828 4.34287908527 0.0
0.674799084703 4.16673768522 0.0
1.18647435526 4.30955189749 0.0
0.360563250283 4.49596479569 0.0
0.873716483853 4.33845499203 0.0
0.418704489949 4.31146264283 0.0
0.492670911224 4.22931614809 0.0
0.403480880356 4.19046776931 0.0
1.19651541215 4.1904686246 0.0
0.728649253738 4.46214546491 0.0
1.00883674467 4.40174664879 0.0
1.11035034557 4.23161841276 0.0
0.261968539765 4.3130079512 0.0
1.33803146023 4.3130079512 0.0
0.74649980488 4.1318354354 0.0
0.927597725248 4.1577597079 0.0
0.892956618256 4.07619338913 0.0
0.659794281787 4.07951387326 0.0
0.587663534405 4.09486537006 0.0
0.942353209926 4.07935300973 0.0
1.01493747319 4.09476013719 0.0
0.613130017774 4.41369803882 0.0
0.449373501074 4.15377191978 0.0
0.514840228377 4.12225850006 0.0
0.497057592 4.41333092106 0.0
1.15061382426 4.15379293084 0.0
1.08514419473 4.12228328152 0.0
0.745617635771 4.23098957592 0.0
0.87523452213 4.59853036549 0.0
0.855262884783 4.2258970831 0.0
1.01126200032 4.53280064162 0.0
1.09391916408 4.40632408872 0.0
1.04436265455 4.71482000827 0.0
0.314320181089 4.38773968607 0.0
1.28649331902 4.38743720145 0.0
0.771211579291 4.06316862024 0.0
0.432259099658 4.24006002157 0.0
0.698583889427 4.07144353526 0.0
1.16802128371 4.238862881 0.0
1.09587629216 4.3086676659 0.0
1.35920470355 4.35666960471 0.0
0.240795296449 4.35666960471 0.0
0.504003580654 4.30815758118 0.0
0.579942709371 4.5342075073 0.0
0.875915224914 4.12815792528 0.0
0.426503136644 4.40717733008 0.0
0.57541416445 4.30365301522 0.0
0.683877978289 4.33161848113 0.0
0.888061695889 4.44633509246 0.0
0.26012287522 4.49859249103 0.0
1.33987712478 4.49859249103 0.0
0.801393572636 4.37060096582 0.0
0.558460082533 4.72496728209 0.0
1.1741923373 4.41132830101 0.0
0.83220012886 4.12779415912 0.0
1.02815069622 4.30053276509 0.0
0.948308583502 4.2880204454 0.0
0.846588933095 4.50834596945 0.0
0.343666800815 4.43485820652 0.0
1.25632767671 4.43480360053 0.0
0.97849585731 4.47031535602 0.0
1.10170977548 4.51507265998 0.0
0.662193131828 4.26809398492 0.0
0.400503668388 4.26881657105 0.0
1.20117145985 4.26130427377 0.0
0.350957892513 4.21796558019 0.0
1.24904210749 4.21796558019 0.0
0.771964652188 4.18905379403 0.0
0.932165148285 4.72736281402 0.0
0.373672364094 4.73321357765 0.0
0.760245937722 4.28409350779 0.0
0.848718469252 4.05767763075 0.0
1.23385612561 4.7358294747 0.0
0.846421485813 4.28065918421 0.0
0.651597058631 4.13043284014 0.0
0.650489852552 4.72138045504 0.0
0.58457834847 4.16375088261 0.0
0.48701309933 4.18859927013 0.0
0.708495738406 4.58856947756 0.0
1.11203398596 4.18878062515 0.0
0.54865558244 4.10250047869 0.0
1.05126102377 4.10234629471 0.0
0.300013757486 4.26259646442 0.0
1.29998624251 4.26259646442 0.0
0.9465032388 4.12718070354 0.0
0.708587583337 4.14146095907 0.0
0.973348904468 4.19537871864 0.0
0.628721855632 4.19538356945 0.0
0.380175010018 4.34021880077 0.0
0.662092932411 4.45899041267 0.0
1.05133526787 4.22221992007 0.0
0.528087045766 4.64327882187 0.0
1.22233124543 4.33521693908 0.0
1.19001193434 4.36273586668 0.0
0.853024099244 4.39544003492 0.0
0.542800296246 4.22324366905 0.0
0.247706318737 4.45239119247 0.0
1.35229368126 4.45239119247 0.0
0.599153768578 4.12953797005 0.0
1.01616570494 4.16227683178 0.0
0.744705786938 4.40569544575 0.0
1.31929001115 4.73702550052 0.0
0.777615355331 4.15113602511 0.0
1.33132411895 4.60631378639 0.0
0.265621610877 4.60975488866 0.0
0.532023338888 4.15374454388 0.0
1.0697792195 4.15241429251 0.0
0.286371037106 4.73010312914 0.0
0.497725885905 4.50153668256 0.0
0.46053455822 4.31587947599 0.0
0.433799237968 4.54629400991 0.0
0.388624781906 4.65094200004 0.0
0.554823673752 4.40451940232 0.0
1.1421595646 4.31818301431 0.0
1.14760043966 4.61655103139 0.0
1.21258698805 4.65320200685 0.0
1.16279096046 4.53292621409 0.0
0.995762647814 4.12508772517 0.0
0.456229040627 4.61456685246 0.0
0.707289391156 4.21520271873 0.0
0.763036833302 4.74285445535 0.0
0.78386198569 4.49787013126 0.0
[...]
POINT_DATA 999
VECTORS Displacement float
-0.0014142437972 -0.118439244367 0
0.00135956076761 -0.118466811241 0
0.0 -0.12 0
0.0 -0.12 0
0.00144982327283 -0.118459159714 0
0.00153777349227 -0.118447912554 0
0.00161673244358 -0.118433563465 0
0.00168296495551 -0.118423709128 0
0.00172093005302 -0.118422751867 0
0.00174175367554 -0.118435251169 0
0.00171926637667 -0.11846526472 0
0.00164931385088 -0.118517537578 0
0.00152447007246 -0.118611067559 0
0.00132170262311 -0.118758119989 0
0.00103184680902 -0.118989212838 0
0.00061928862506 -0.119352590136 0
0.0 -0.12 0
0.0 -0.12 0
0.0 -0.12 0
0.0 -0.12 0
0.0 -0.12 0
0.0 -0.12 0
0.0 -0.12 0
0.0 -0.12 0
0.0 -0.12 0
0.0 -0.12 0
0.0 -0.12 0
0.0 -0.12 0
0.0 -0.12 0
0.0 -0.12 0
0.0 -0.12 0
0.0 -0.12 0
0.0 -0.12 0
-0.000621849279052 -0.119348558029 0
-0.00103985615194 -0.118980667578 0
-0.00134724414523 -0.118744121355 0
-0.00154861386247 -0.118591604617 0
-0.0016768265238 -0.118495109501 0
-0.00175200660864 -0.118441023295 0
-0.00177874459037 -0.118410356289 0
-0.00176153678975 -0.118397142083 0
-0.00172687224714 -0.118397468147 0
-0.0016637047883 -0.118406778811 0
-0.00158759137651 -0.118420727247 0
-0.001502227035 -0.118431716086 0
-0.0013418312023 -0.118393398893 0
-0.00126217515315 -0.118343137855 0
-0.00117575358052 -0.118284846256 0
-0.00108104543029 -0.118218461026 0
-0.000978806734683 -0.118141263095 0
-0.000871700569832 -0.118051393659 0
-0.000758801483655 -0.117950381904 0
-0.000636076934989 -0.117836925828 0
-0.000505966604217 -0.117703153525 0
-0.000373829933875 -0.117559173947 0
-0.000234191813702 -0.117395934114 0
-8.41834618676e-05 -0.117213848371 0
6.87927188034e-05 -0.117007311357 0
0.000230077579471 -0.116778552016 0
0.000397823463231 -0.116523689511 0
0.000576158152354 -0.116236073914 0
0.000758138799472 -0.115911069466 0
0.000960472777202 -0.115542003604 0
0.0011602762829 -0.115124998671 0
0.00140044171011 -0.114577859115 0
0.00165837590128 -0.113803623267 0
0.00182937509028 -0.113050106077 0
0.0019273373819 -0.112339171718 0
0.00196250272562 -0.111658745233 0
0.00194905395381 -0.111029557882 0
0.001878645589 -0.110443602905 0
0.00177331627838 -0.109915703362 0
0.0016263938794 -0.10944137014 0
0.00145681089771 -0.109034132552 0
0.00125059559944 -0.10867664508 0
0.00102630378458 -0.10838779251 0
0.00077396166573 -0.108155311394 0
0.000514960967102 -0.107986962047 0
0.000244094289353 -0.107886227834 0
-5.51084570433e-05 -0.107840162837 0
-0.00033924289083 -0.107870421733 0
-0.000614475545791 -0.107980337011 0
-0.000874359741157 -0.108145396594 0
-0.00111880606923 -0.108376750766 0
-0.00134393978746 -0.108668716198 0
-0.00155083266397 -0.109024931268 0
-0.00172937056152 -0.109443443946 0
-0.0018655073458 -0.10990609046 0
-0.00197021368077 -0.110428502328 0
-0.00203977262588 -0.111016091169 0
-0.00205515125376 -0.111641540821 0
-0.0020218020493 -0.112319287364 0
-0.00192241709258 -0.113038428703 0
-0.00174921727944 -0.113791155483 0
-0.0014941594093 -0.114557169137 0
-0.00125657164071 -0.115102716508 0
-0.00105249455624 -0.115533047639 0
-0.000847074810083 -0.115907996944 0
-0.000662428873386 -0.116236999493 0
-0.000481475351012 -0.116527871159 0
-0.000311333882592 -0.116785415987 0
-0.000147765965621 -0.117016503742 0
7.36072956158e-06 -0.117225151661 0
0.000159484192867 -0.117409149562 0
0.000301168170942 -0.11757414238 0
0.000435311717299 -0.117719718233 0
0.000567368117161 -0.117854955216 0
0.000691954396539 -0.117969718813 0
0.00080663709219 -0.118071976483 0
0.000915514154718 -0.11816305083 0
0.00101948362793 -0.118241397816 0
0.00111590355041 -0.118308920281 0
0.00120403262023 -0.118368346684 0
0.0012854011935 -0.118419757701 0
0.00126037513698 -0.116735453392 0
-0.00127409559811 -0.116717547456 0
3.01212936499e-06 -0.113163493207 0
-0.000911274348025 -0.113827713109 0
0.00155724509077 -0.117587056842 0
-0.00160477442779 -0.117578401361 0
0.000823149772948 -0.113739646939 0
-0.000167373961383 -0.110891572156 0
7.01713343869e-05 -0.110824387043 0
0.00111692489212 -0.116198035777 0
-0.00117218495139 -0.116157912616 0
-8.58698151351e-05 -0.117137960253 0
-0.00137858797331 -0.118446817339 0
0.00134682570545 -0.118492265026 0
-0.000170345357039 -0.112038744698 0
-0.000543522129701 -0.114546846526 0
3.96822780717e-05 -0.112026515138 0
0.000470328826861 -0.114534680482 0
-0.00123710167923 -0.117371255008 0
0.00117777517207 -0.117376626268 0
-0.00073949078946 -0.114924024688 0
0.00147551994999 -0.118080890337 0
-0.00152685221564 -0.118061933864 0
-1.82730955604e-05 -0.109419872294 0
0.000756884912351 -0.114818047491 0
0.000624196663035 -0.118105680305 0
0.000333604611046 -0.110195918195 0
-0.000698983291038 -0.118132182472 0
-0.000571354636824 -0.116070432611 0
-0.000430100912994 -0.110176757537 0
0.000500624233681 -0.116070912804 0
0.00168655770402 -0.118192116998 0
-0.00172577886425 -0.118174932396 0
0.00125239017788 -0.115653081191 0
-0.00131745518564 -0.11571753908 0
-0.000511311018759 -0.112869583765 0
0.000456570980646 -0.112773252575 0
6.00383688198e-05 -0.115279849958 0
0.000183221475896 -0.113241323105 0
-0.000260177095269 -0.11321550278 0
-3.30227220711e-05 -0.111668600225 0
-0.000719075505416 -0.116750397598 0
-0.000331443428923 -0.109159774545 0
-0.000793562798971 -0.117000334017 0
0.00072607457943 -0.117009606229 0
0.00061275022416 -0.116794620601 0
0.00144015453502 -0.116696707189 0
0.0015047739637 -0.117507768808 0
-0.00155550272045 -0.117602750881 0
-0.0014890404585 -0.116679942999 0
0.000346360718528 -0.10914113967 0
0.00122956821988 -0.117938111089 0
-0.00128719371266 -0.117920006059 0
-0.0010792767319 -0.114974162081 0
-0.000513673197128 -0.112274690616 0
0.00100976670866 -0.114983953494 0
0.0010811549521 -0.118048957228 0
-0.00119648016765 -0.117925590584 0
0.000650109236165 -0.111110275605 0
0.000407465466102 -0.112170922715 0
-0.00160930642752 -0.118536192815 0
-0.00111252375407 -0.119072689301 0
0.00158285540692 -0.118548888546 0
0.00111052262781 -0.119073777502 0
-0.000770743046593 -0.111078348733 0
-3.89148669116e-05 -0.115245829051 0
-0.000805261064253 -0.119046618347 0
-4.11759778418e-05 -0.115237209441 0
0.000715802115659 -0.119191779346 0
0.000116836483753 -0.11861911514 0
-0.00065468988188 -0.113448407448 0
-0.00103241569236 -0.11471602669 0
-0.00097816632214 -0.117636134658 0
0.000914541788551 -0.117651519482 0
0.000535392933548 -0.113385353709 0
-0.000121901061033 -0.108609662178 0
0.000970325344548 -0.114627366648 0
-0.000256850086799 -0.118429020479 0
-2.86948027499e-05 -0.110420562914 0
-0.00148669224031 -0.117710059493 0
0.00143768255812 -0.117721194278 0
0.00160248260244 -0.118095530722 0
0.00164585883062 -0.118261945792 0
-0.00169088989631 -0.11824149576 0
-0.000384761542064 -0.113822818685 0
-0.00018775549544 -0.111305941732 0
0.00130354743596 -0.1169243839 0
-0.0016445484573 -0.118112790074 0
0.000416954677206 -0.113815030099 0
-0.00136784503116 -0.116868250559 0
-0.000902757733477 -0.115451184163 0
-0.000460026611814 -0.116797771368 0
0.0003876789706 -0.116804473076 0
-0.000435823803739 -0.115742921123 0
0.00111859626359 -0.115721190464 0
0.000850257190133 -0.115515363658 0
-0.00136254185982 -0.118154644489 0
0.00130657033711 -0.118176071045 0
3.62354378125e-05 -0.109918208246 0
3.72510934527e-05 -0.111177196765 0
-0.000704544164851 -0.109290196146 0
0.000879230814813 -0.110091017639 0
0.000906985355295 -0.112006284043 0
-0.000983544809166 -0.110125340912 0
-0.001004068933 -0.112065556091 0
-0.00106984238486 -0.115689046311 0
-2.47196997784e-05 -0.11604331857 0
0.00040686241906 -0.114480873204 0
-0.00146075495473 -0.11668458706 0
-5.41448149333e-05 -0.116042175194 0
-0.00049455879273 -0.114465903113 0
-0.000264926495304 -0.111804091527 0
0.000320867627497 -0.117579559919 0
0.000185145900117 -0.111710841737 0
0.000983888643222 -0.117229677179 0
0.00139097934025 -0.116546532984 0
0.00053941626154 -0.119110416888 0
-0.00163650908623 -0.117952085301 0
0.00158948619615 -0.117971443707 0
0.000203228329154 -0.108536665076 0
-0.000953036854668 -0.11646796272 0
0.000732887023366 -0.10932930154 0
0.000876577898907 -0.116472347517 0
0.00123844791842 -0.115780568142 0
0.00150157572121 -0.118289986535 0
-0.0015524622436 -0.118267031466 0
-0.00129578401059 -0.115779804556 0
-0.00104221016547 -0.117287749649 0
-0.000175600253721 -0.110022232074 0
-0.00158620712014 -0.117248184168 0
-0.00113047183048 -0.11475747467 0
-0.000709627877331 -0.113971319611 0
0.000501565353048 -0.115561758189 0
-0.00173747006227 -0.118401638121 0
0.00170216513463 -0.118420030872 0
-1.79143864611e-05 -0.114181693318 0
-0.000500484024683 -0.119189496918 0
0.0015430338658 -0.11728614298 0
-0.000102980497046 -0.109723039724 0
0.00107177979861 -0.114766197948 0
0.000741616140008 -0.11358923008 0
0.0002413586903 -0.116348794386 0
-0.00168668272302 -0.117929903782 0
0.00164583192455 -0.117941749659 0
0.000944467093642 -0.116332951728 0
0.00131019553406 -0.117532732588 0
-0.000714393065229 -0.113165476289 0
-0.00113892714868 -0.116948560511 0
0.00102602192831 -0.116960941181 0
-0.000719479290857 -0.117438804606 0
0.000651662971908 -0.117452279355 0
-0.000108387750118 -0.110892286839 0
0.000288760972633 -0.119094752023 0
-0.000632567204319 -0.11945609886 0
-0.000252260559985 -0.112726661465 0
-0.00050933187968 -0.108549243593 0
0.00061102578933 -0.119479106299 0
0.000217621987425 -0.112686458481 0
0.000164377334471 -0.111063515923 0
-0.000349386091192 -0.11905369204 0
-0.000258113508157 -0.112954355857 0
-0.000522441356306 -0.115375718715 0
-0.000422693523045 -0.117486614607 0
0.000453655736783 -0.115353521991 0
0.000808878167526 -0.113277544546 0
-0.00089978855998 -0.11326021606 0
-0.00106818545467 -0.117900403616 0
0.0010063126065 -0.117918755978 0
-0.000290276011501 -0.110972438026 0
1.63979058736e-05 -0.110433108311 0
0.000416015371697 -0.112534961161 0
-0.000489071943247 -0.11250504061 0
-0.00148327925783 -0.117351903533 0
-0.000799219655739 -0.115962384241 0
0.000753333644446 -0.114335588649 0
-0.000887926900277 -0.118532024661 0
0.00141368484564 -0.117368448987 0
0.00148423028037 -0.117173776479 0
0.000303851085176 -0.114669428243 0
-0.000840481350045 -0.114469898059 0
-0.00175542770346 -0.1183299048 0
0.0017155404724 -0.118350166211 0
0.000215711146298 -0.112166221906 0
0.000160365881646 -0.112944263226 0
-0.000364869626785 -0.114838578279 0
0.000660050714743 -0.119469449623 0
-4.38911049702e-05 -0.110141756539 0
0.00143325753471 -0.118772049164 0
-0.00144502872634 -0.118772800239 0
-0.000136635819426 -0.114164539638 0
3.39559109068e-05 -0.114191840867 0
-0.000706324772879 -0.119431717714 0
-0.00137150852977 -0.117417769788 0
-0.00136481632553 -0.116394923178 0
-0.00141917659549 -0.118096376439 0
-0.0010895164704 -0.118925197149 0
-0.00129710046316 -0.116080218638 0
0.0013193447113 -0.11644413915 0
0.00112470858113 -0.118539947511 0
0.00106454105531 -0.118945796982 0
0.00141695513569 -0.117991743901 0
-0.000368842128728 -0.111964993171 0
-0.00114356346778 -0.118510001399 0
-0.000370195534057 -0.111792653173 0
-7.94484785291e-05 -0.119201221497 0
-0.000107225435985 -0.116172451529 0
0.000698052608206 -0.114065390482 0
-0.00012074263966 -0.116538709927 0
0.000273616951579 -0.111701763222 0
4.3779556933e-05 -0.116542998061 0
0.00165893065581 -0.118301115028 0
0.000556523770061 -0.10874607059 0
-0.00121141931317 -0.117685248209 0
0.00115205074453 -0.117700612884 0
-0.000494601650176 -0.11718840457 0
0.000423179464449 -0.117199301113 0
-0.00103417348543 -0.11648783433 0
-0.00154948549957 -0.117179628108 0
0.000127943914717 -0.109108744719 0
-0.000458844270216 -0.116805081519 0
-0.00101263489137 -0.117315324941 0
0.000949401575868 -0.117326307081 0
-0.00169192008197 -0.118270451838 0
0.00159926138636 -0.117741753426 0
0.000636213997486 -0.11300349522 0
-0.00120572297404 -0.118090728661 0
0.00114643235095 -0.11811149771 0
0.000794491844518 -0.118726487178 0
-0.00163179639316 -0.117725463222 0
-0.00144806790134 -0.118285995438 0
0.00139421700411 -0.118309792883 0
0.00113700241026 -0.110907065013 0
7.36191218604e-05 -0.111103587856 0
0.0013642560225 -0.118730381407 0
-0.00139055481602 -0.118720397724 0
-0.00111937794876 -0.115587224639 0
0.000273813689592 -0.109768579336 0
-2.03303451901e-05 -0.112258279362 0
-0.000147217852457 -0.109151676324 0
0.00136057167401 -0.11619780525 0
0.00106186761637 -0.11560914522 0
-0.000922330278174 -0.114008413715 0
-0.00104498601535 -0.109392008343 0
-0.00119416902907 -0.110915318058 0
0.00141068194025 -0.117167577984 0
-0.00146118871227 -0.117918657124 0
0.00140814290087 -0.117935398684 0
0.000657164680469 -0.1174158064 0
-0.00141521263875 -0.116210120583 0
-0.000958448708696 -0.114181166758 0
0.000315382729477 -0.113695083507 0
-0.000747717486734 -0.117409713439 0
-7.90665409907e-05 -0.118122348932 0
0.000314482087441 -0.11546109032 0
-0.000397870247481 -0.115452459779 0
-0.000906501964729 -0.116001793515 0
0.000804029694372 -0.116003062911 0
-0.00167545251503 -0.118523136348 0
0.00164647266217 -0.118540088743 0
-0.000755130037825 -0.113215739697 0
0.000905027371968 -0.114270800183 0
-0.000465909455488 -0.113838606357 0
0.000861050327282 -0.117992878877 0
-0.000731582142603 -0.108780365675 0
0.000781561669605 -0.115655345554 0
0.00159178602509 -0.118336129927 0
-0.00163961647932 -0.118312610164 0
-0.000636702539121 -0.116520505751 0
-0.000402527413003 -0.109589128858 0
0.000566531965103 -0.116524544237 0
-0.000539150965394 -0.112468978025 0
0.000356837335546 -0.118363263237 0
0.000413427308048 -0.119509131471 0
0.00126986817151 -0.116086915062 0
-0.00120156756599 -0.115387326143 0
0.00159399851327 -0.118120308656 0
-0.0016409663101 -0.118102266331 0
0.0015168251233 -0.118411236111 0
-0.00155116354994 -0.118387315283 0
-0.000131581392939 -0.110531120555 0
0.00117562223476 -0.116642544525 0
0.00108762421892 -0.10949034073 0
1.46355777106e-05 -0.108247037449 0
-1.918663979e-05 -0.110348834932 0
-0.00153486068211 -0.117176061876 0
-0.00122443899571 -0.116705532708 0
-0.000782780872129 -0.117662713771 0
0.000716110280758 -0.117678612968 0
0.000180525190123 -0.113865751371 0
0.000436024850216 -0.112317184068 0
-0.000316296335229 -0.108365175646 0
0.00110384146705 -0.119085263013 0
-0.00138576737652 -0.117590008492 0
0.00132387169067 -0.11760457482 0
0.00109007842314 -0.115139625514 0
-0.00120891488325 -0.118997223321 0
-0.000394697992633 -0.119538546144 0
0.00148125308923 -0.116904849673 0
-0.00096326216416 -0.118070358051 0
-0.000278823913073 -0.111850090117 0
0.000963570855915 -0.1150538719 0
0.00114490261341 -0.115225342891 0
0.000621674790094 -0.11318215461 0
0.000928491840312 -0.114162816698 0
-0.000944728817168 -0.115046516462 0
-0.00154642659706 -0.117998430503 0
0.000519586519731 -0.110625068419 0
0.000199746829013 -0.111659694137 0
-0.00155525734512 -0.117904118321 0
0.00150459995936 -0.117925874233 0
-0.000904137909116 -0.117826827251 0
0.000839436048967 -0.117844524283 0
0.000147441748513 -0.111216302497 0
0.00123280983947 -0.117146034403 0
0.00118198199185 -0.11725401302 0
0.000201867991395 -0.11185216667 0
-0.00121499521687 -0.115251009545 0
-0.000416752815658 -0.113156585857 0
-0.0013797436361 -0.117209955719 0
-0.00146871297999 -0.118181932514 0
0.00141544152776 -0.118203474266 0
0.000122855990325 -0.11928985782 0
-0.000294685195968 -0.114765346658 0
-0.000265372918002 -0.115644687878 0
-0.00152330810302 -0.116893089764 0
0.000398421135099 -0.113145461342 0
-0.000637277729048 -0.110612735673 0
-0.0014160871045 -0.116983346566 0
0.000727180040854 -0.114862280381 0
0.000419902488908 -0.119603166575 0
0.00121725674931 -0.11264932973 0
0.000192226812648 -0.115642472232 0
-0.000437701420621 -0.118283449262 0
-6.32369008451e-05 -0.110349315959 0
0.000254814763532 -0.114806867086 0
-0.000170867361305 -0.112134380989 0
0.000906374715087 -0.113983188608 0
-0.00133971115049 -0.11264469581 0
-0.000777201925682 -0.114878953146 0
-0.000998127681764 -0.113967677127 0
-4.45245865329e-05 -0.109896272228 0
0.000116019775783 -0.112100449488 0
4.02240998684e-05 -0.108809140841 0
0.00168690786882 -0.118349377651 0
-0.00172998866218 -0.118327086015 0
0.00140501986697 -0.11137127678 0
0.00133563155529 -0.110329632597 0
-0.00014567014413 -0.119458037452 0
-0.00141560952545 -0.110312954903 0
-0.00148792909935 -0.111384593789 0
0.000648616065232 -0.115166497167 0
0.000358211528972 -0.115895746669 0
-0.000264461678049 -0.111330929551 0
-0.000736525983368 -0.115151716894 0
-0.000441777170899 -0.115892495568 0
0.00154954032162 -0.117868065839 0
0.000717822705947 -0.11850648563 0
-0.000154949429055 -0.113706162973 0
0.000480710536733 -0.108377722009 0
-0.000710015007951 -0.109732105987 0
0.000854675154667 -0.108791456252 0
6.19739942707e-05 -0.110730582053 0
0.00148383493675 -0.117563308342 0
0.00158882988387 -0.11823373723 0
-0.00163656976018 -0.118212925184 0
-0.0012244432605 -0.11722250507 0
0.00165299408838 -0.118107703312 0
-0.00169651873317 -0.118091430777 0
0.000173490605123 -0.117057930779 0
-0.000808584828482 -0.113607697257 0
0.000258796345602 -0.119454436071 0
-0.000290375409074 -0.108840435991 0
0.000494036289116 -0.11454402361 0
-0.000216005711514 -0.116973453858 0
0.000140634823277 -0.116982215585 0
-0.00158918475296 -0.117754006007 0
0.000608945667463 -0.113444804122 0
-0.000456155455452 -0.112548086976 0
-0.000399318433039 -0.112657551888 0
0.00124290120151 -0.118144143379 0
-0.000206399156453 -0.111249437528 0
-0.000688291131845 -0.113414392984 0
0.000646988185004 -0.109838935174 0
-2.23980500888e-05 -0.110976212551 0
-0.00163606068916 -0.117583853106 0
-0.000580241799391 -0.115238579196 0
-0.000179082050283 -0.109698278973 0
-0.000209864748956 -0.115422309775 0
-0.000609689066155 -0.114307541253 0
0.000372068038146 -0.113741361827 0
-0.000374393360702 -0.11644518271 0
0.000300781764107 -0.11644864588 0
-0.00045727808955 -0.113725984077 0
0.000191204215393 -0.113272983661 0
0.000159301747399 -0.109449958052 0
0.000543191430141 -0.112774886137 0
0.00166758651781 -0.118128061576 0
-0.00170452475478 -0.118105194977 0
-0.000386072512811 -0.119633757961 0
0.000297112686444 -0.112676768542 0
0.00159115640582 -0.117583566163 0
4.64864587741e-05 -0.109509282621 0
-0.00102472488705 -0.108979716274 0
-0.00143183447331 -0.11805586393 0
0.00137750455458 -0.118075304223 0
-0.00128669140355 -0.118241530615 0
0.00122904988941 -0.118264719908 0
-0.000475787204341 -0.109181014304 0
-0.00148062255928 -0.116913977975 0
0.000537843175491 -0.111742705303 0
0.00149351346049 -0.118255689439 0
0.000754860829235 -0.113873167404 0
-0.000390953623719 -0.11133497962 0
0.00154041986579 -0.117768724481 0
-0.00150165840784 -0.11834066286 0
0.00144927331617 -0.118365642412 0
0.000388677504896 -0.116876331618 0
0.00110770485267 -0.116266005363 0
3.40035607089e-05 -0.11465875781 0
-0.0013478125989 -0.11777465346 0
0.00129149576411 -0.117790286361 0
-0.000969313667604 -0.116815893811 0
-0.000135099828989 -0.111429483817 0
0.000885813125617 -0.116836086543 0
0.000605333254337 -0.113006792823 0
0.000338291853209 -0.108765916313 0
-0.00139480443399 -0.116207334452 0
-0.000113147774187 -0.114662812771 0
-0.000656457562434 -0.116803363361 0
0.0005866417006 -0.116809794155 0
0.000851244702146 -0.11690335373 0
-0.00103806167654 -0.115838127563 0
-0.000407204275489 -0.119680137394 0
-0.00105912825323 -0.118036261676 0
0.000997128378081 -0.118056478999 0
0.000433370864557 -0.109404831534 0
9.59328945031e-05 -0.116371060966 0
-0.000175963289443 -0.116373450035 0
-0.000348789340572 -0.112425096851 0
-0.000356035787917 -0.111768172616 0
-0.000320040141464 -0.119377809661 0
-0.000711876029367 -0.115738553418 0
-0.000615045751991 -0.116201806875 0
0.00141149192239 -0.116830196483 0
0.000270643081936 -0.115731355787 0
0.000641683988726 -0.115764139942 0
0.000293956647102 -0.112362293798 0
0.00168831422676 -0.118254520164 0
-0.00173009076865 -0.118236092146 0
-0.000981436378997 -0.115078725447 0
-0.0011167194564 -0.117511710417 0
0.00105437159191 -0.117521661262 0
0.00120637228243 -0.115993503906 0
-0.000896283574359 -0.117463040573 0
0.000824347699139 -0.117471600226 0