# vtk DataFile Version 2.0
Generated with Solid Solver
ASCII
DATASET UNSTRUCTURED_GRID
POINTS 999 float 
0.2 4.325 0.0
1.4 4.325 0.0
1.4 4.825 0.0
0.2 4.825 0.0
1.4 4.34523264049 0.0
1.4 4.36751203886 0.0
1.4 4.39204525371 0.0
1.4 4.4190602782 0.0
1.4 4.44880817466 0.0
1.4 4.48156541084 0.0
1.4 4.51763640748 0.0
1.4 4.5573564007 0.0
1.4 4.60109451608 0.0
1.4 4.64925723872 0.0
1.4 4.70229217343 0.0
1.4 4.76069218095 0.0
1.33333333333 4.825 0.0
1.26666666667 4.825 0.0
1.2 4.825 0.0
1.13333333333 4.825 0.0
1.06666666667 4.825 0.0
1.0 4.825 0.0
0.933333333334 4.825 0.0
0.866666666668 4.825 0.0
0.800000000001 4.825 0.0
0.733333333334 4.825 0.0
0.666666666668 4.825 0.0
0.600000000001 4.825 0.0
0.533333333334 4.825 0.0
0.466666666667 4.825 0.0
0.4 4.825 0.0
0.333333333334 4.825 0.0
0.266666666667 4.825 0.0
0.2 4.76069218095 0.0
0.2 4.70229217343 0.0
0.2 4.64925723872 0.0
0.2 4.60109451608 0.0
0.2 4.5573564007 0.0
0.2 4.51763640748 0.0
0.2 4.48156541084 0.0
0.2 4.44880817466 0.0
0.2 4.4190602782 0.0
0.2 4.39204525371 0.0
0.2 4.36751203886 0.0
0.2 4.34523264049 0.0
0.212131543907 4.30926329506 0.0
0.224675715302 4.29385348652 0.0
0.23762369102 4.27878141198 0.0
0.250966423879 4.26405760374 0.0
0.264694484585 4.24969246611 0.0
0.278798324214 4.23569599189 0.0
0.293267939266 4.22207810803 0.0
0.308093289028 4.20884826442 0.0
0.323263842145 4.19601585877 0.0
0.338769084145 4.18358978512 0.0
0.354597997314 4.17157887342 0.0
0.37073960121 4.15999145532 0.0
0.387182441982 4.14883575334 0.0
0.403915091795 4.13811952025 0.0
0.420925712897 4.12785033813 0.0
0.438202430937 4.11803537461 0.0
0.455733079095 4.10868154223 0.0
0.473505374364 4.09979539439 0.0
0.491506842655 4.09138316882 0.0
0.509724826085 4.0834507802 0.0
0.528146580414 4.07600377808 0.0
0.546759103951 4.06904741762 0.0
0.56554943677 4.06258654322 0.0
0.584504260001 4.05662573401 0.0
0.60361041518 4.0511691282 0.0
0.622854334779 4.04622060039 0.0
0.642222678753 4.04178358113 0.0
0.661701681839 4.03786122392 0.0
0.681277836375 4.03445624851 0.0
0.700937245817 4.03157107217 0.0
0.720666255912 4.02920769845 0.0
0.740450894784 4.02736780161 0.0
0.76027736978 4.02605266363 0.0
0.780131702711 4.02526321235 0.0
0.799999999998 4.025 0.0
0.819868297285 4.02526321235 0.0
0.839722630216 4.02605266363 0.0
0.859549105212 4.02736780161 0.0
0.879333744085 4.02920769845 0.0
0.89906275418 4.03157107217 0.0
0.918722163621 4.03445624851 0.0
0.938298318157 4.03786122392 0.0
0.957777321244 4.04178358113 0.0
0.977145665218 4.04622060039 0.0
0.996389584817 4.0511691282 0.0
1.01549574 4.05662573401 0.0
1.03445056323 4.06258654322 0.0
1.05324089605 4.06904741762 0.0
1.07185341958 4.07600377808 0.0
1.09027517391 4.0834507802 0.0
1.10849315734 4.09138316882 0.0
1.12649462563 4.09979539439 0.0
1.1442669209 4.10868154222 0.0
1.16179756906 4.1180353746 0.0
1.1790742871 4.12785033813 0.0
1.1960849082 4.13811952024 0.0
1.21281755802 4.14883575334 0.0
1.22926039879 4.15999145532 0.0
1.24540200269 4.17157887342 0.0
1.26123091585 4.18358978512 0.0
1.27673615785 4.19601585877 0.0
1.29190671097 4.20884826442 0.0
1.30673206073 4.22207810803 0.0
1.32120167579 4.23569599189 0.0
1.33530551541 4.24969246611 0.0
1.34903357612 4.26405760374 0.0
1.36237630898 4.27878141198 0.0
1.3753242847 4.29385348652 0.0
1.38786845609 4.30926329506 0.0
1.05632730172 4.46025283906 0.0
0.549964048968 4.4630053958 0.0
0.806135520676 4.31186690218 0.0
0.603895783049 4.26079310371 0.0
1.22984770884 4.38318704125 0.0
0.3703382852 4.38423552752 0.0
0.995322815839 4.25565031136 0.0
0.728315816804 4.1765935937 0.0
0.872128173905 4.17288724072 0.0
1.14059401893 4.27298468684 0.0
0.461553191009 4.27181671009 0.0
0.784706775856 4.56821390922 0.0
0.398287125272 4.57945970538 0.0
1.20625306554 4.58334743514 0.0
0.624100842742 4.1589824436 0.0
0.5257453845 4.18811776279 0.0
0.978502430793 4.15488737058 0.0
1.07419209812 4.18825154482 0.0
0.364313698077 4.28677035763 0.0
1.23509538257 4.28681716733 0.0
0.68124123937 4.39284548972 0.0
1.31679378691 4.35012066749 0.0
0.283206213094 4.35012066749 0.0
0.791498533126 4.11467141721 0.0
0.931481076052 4.3801344917 0.0
0.966719065571 4.62778042839 0.0
0.684451667517 4.11068036752 0.0
0.618335406951 4.62686910993 0.0
0.450982331762 4.19686171732 0.0
0.915674266355 4.10995633851 0.0
1.14900051594 4.19689012964 0.0
1.30193709687 4.4481448133 0.0
0.298574667609 4.44816296922 0.0
1.05734787542 4.34990107617 0.0
0.539273225177 4.35252599628 0.0
0.709896798149 4.27721026287 0.0
0.895708916005 4.26924194389 0.0
0.813273511364 4.43835766235 0.0
0.559289631452 4.13230879113 0.0
1.04001407307 4.13281539633 0.0
0.801161810585 4.23146244955 0.0
0.665113819616 4.52056650186 0.0
0.852577362173 4.09111846388 0.0
0.390256727869 4.2242806298 0.0
1.20974450479 4.22428104599 0.0
0.921542541183 4.52778058719 0.0
1.14030889032 4.36437344809 0.0
1.15600477272 4.46808538305 0.0
0.435243219029 4.4750581257 0.0
0.462045157798 4.36654654286 0.0
0.735806812738 4.08472269746 0.0
1.30082934537 4.29793772796 0.0
0.299170654625 4.29793772796 0.0
0.533651712118 4.26265983853 0.0
0.666130919144 4.21652131559 0.0
1.0676097303 4.26179469382 0.0
1.08054433577 4.58530946155 0.0
0.506773767255 4.56568295079 0.0
0.626745312844 4.10124420826 0.0
0.933845304214 4.2106954732 0.0
0.293717639664 4.55175000185 0.0
0.312505022079 4.66426411351 0.0
1.3058164124 4.55154930624 0.0
1.29054387065 4.66302765963 0.0
0.973467966326 4.09941619478 0.0
0.487935413164 4.15087084015 0.0
0.461549079751 4.68836834982 0.0
1.11203248746 4.15093503889 0.0
1.14453515393 4.70617370303 0.0
0.840217564202 4.68891146633 0.0
0.585347033288 4.20539048534 0.0
0.619177396637 4.34227576306 0.0
0.331644410315 4.24962190462 0.0
1.26835558968 4.24962190462 0.0
1.01536156978 4.19987473052 0.0
0.809331033562 4.07065709122 0.0
0.982321540791 4.33437358971 0.0
0.725600576914 4.66999651799 0.0
0.812291456186 4.16642942492 0.0
0.335887692543 4.33918235669 0.0
1.26344844681 4.34017131907 0.0
1.23449730504 4.49457441524 0.0
1.34334172095 4.40539551957 0.0
0.256658279045 4.40539551957 0.0
0.741646926828 4.34287908527 0.0
0.674799084703 4.16673768522 0.0
1.18647435526 4.30955189749 0.0
0.360563250283 4.49596479569 0.0
0.873716483853 4.33845499203 0.0
0.418704489949 4.31146264283 0.0
0.492670911224 4.22931614809 0.0
0.403480880356 4.19046776931 0.0
1.19651541215 4.1904686246 0.0
0.728649253738 4.46214546491 0.0
1.00883674467 4.40174664879 0.0
1.11035034557 4.23161841276 0.0
0.261968539765 4.3130079512 0.0
1.33803146023 4.3130079512 0.0
0.74649980488 4.1318354354 0.0
0.927597725248 4.1577597079 0.0
0.892956618256 4.07619338913 0.0
0.659794281787 4.07951387326 0.0
0.587663534405 4.09486537006 0.0
0.942353209926 4.07935300973 0.0
1.01493747319 4.09476013719 0.0
0.613130017774 4.41369803882 0.0
0.449373501074 4.15377191978 0.0
0.514840228377 4.12225850006 0.0
0.497057592 4.41333092106 0.0
1.15061382426 4.15379293084 0.0
1.08514419473 4.12228328152 0.0
0.745617635771 4.23098957592 0.0
0.87523452213 4.59853036549 0.0
0.855262884783 4.2258970831 0.0
1.01126200032 4.53280064162 0.0
1.09391916408 4.40632408872 0.0
1.04436265455 4.71482000827 0.0
0.314320181089 4.38773968607 0.0
1.28649331902 4.38743720145 0.0
0.771211579291 4.06316862024 0.0
0.432259099658 4.24006002157 0.0
0.698583889427 4.07144353526 0.0
1.16802128371 4.238862881 0.0
1.09587629216 4.3086676659 0.0
1.35920470355 4.35666960471 0.0
0.240795296449 4.35666960471 0.0
0.504003580654 4.30815758118 0.0
0.579942709371 4.5342075073 0.0
0.875915224914 4.12815792528 0.0
0.426503136644 4.40717733008 0.0
0.57541416445 4.30365301522 0.0
0.683877978289 4.33161848113 0.0
0.888061695889 4.44633509246 0.0
0.26012287522 4.49859249103 0.0
1.33987712478 4.49859249103 0.0
0.801393572636 4.37060096582 0.0
0.558460082533 4.72496728209 0.0
1.1741923373 4.41132830101 0.0
0.83220012886 4.12779415912 0.0
1.02815069622 4.30053276509 0.0
0.948308583502 4.2880204454 0.0
0.846588933095 4.50834596945 0.0
0.343666800815 4.43485820652 0.0
1.25632767671 4.43480360053 0.0
0.97849585731 4.47031535602 0.0
1.10170977548 4.51507265998 0.0
0.662193131828 4.26809398492 0.0
0.400503668388 4.26881657105 0.0
1.20117145985 4.26130427377 0.0
0.350957892513 4.21796558019 0.0
1.24904210749 4.21796558019 0.0
0.771964652188 4.18905379403 0.0
0.932165148285 4.72736281402 0.0
0.373672364094 4.73321357765 0.0
0.760245937722 4.28409350779 0.0
0.848718469252 4.05767763075 0.0
1.23385612561 4.7358294747 0.0
0.846421485813 4.28065918421 0.0
0.651597058631 4.13043284014 0.0
0.650489852552 4.72138045504 0.0
0.58457834847 4.16375088261 0.0
0.48701309933 4.18859927013 0.0
0.708495738406 4.58856947756 0.0
1.11203398596 4.18878062515 0.0
0.54865558244 4.10250047869 0.0
1.05126102377 4.10234629471 0.0
0.300013757486 4.26259646442 0.0
1.29998624251 4.26259646442 0.0
0.9465032388 4.12718070354 0.0
0.708587583337 4.14146095907 0.0
0.973348904468 4.19537871864 0.0
0.628721855632 4.19538356945 0.0
0.380175010018 4.34021880077 0.0
0.662092932411 4.45899041267 0.0
1.05133526787 4.22221992007 0.0
0.528087045766 4.64327882187 0.0
1.22233124543 4.33521693908 0.0
1.19001193434 4.36273586668 0.0
0.853024099244 4.39544003492 0.0
0.542800296246 4.22324366905 0.0
0.247706318737 4.45239119247 0.0
1.35229368126 4.45239119247 0.0
0.599153768578 4.12953797005 0.0
1.01616570494 4.16227683178 0.0
0.744705786938 4.40569544575 0.0
1.31929001115 4.73702550052 0.0
0.777615355331 4.15113602511 0.0
1.33132411895 4.60631378639 0.0
0.265621610877 4.60975488866 0.0
0.532023338888 4.15374454388 0.0
1.0697792195 4.15241429251 0.0
0.286371037106 4.73010312914 0.0
0.497725885905 4.50153668256 0.0
0.46053455822 4.31587947599 0.0
0.433799237968 4.54629400991 0.0
0.388624781906 4.65094200004 0.0
0.554823673752 4.40451940232 0.0
1.1421595646 4.31818301431 0.0
1.14760043966 4.61655103139 0.0
1.21258698805 4.65320200685 0.0
1.16279096046 4.53292621409 0.0
0.995762647814 4.12508772517 0.0
0.456229040627 4.61456685246 0.0
0.707289391156 4.21520271873 0.0
0.763036833302 4.74285445535 0.0
0.78386198569 4.49787013126 0.0
[...]
POINT_DATA 999
VECTORS Displacement float
0.3572648295 -0.196219819097 0
0.362733114386 -0.196188220246 0
0.36 -0.2 0
0.36 -0.2 0
0.362969875593 -0.196171953687 0
0.36319732836 -0.196150808093 0
0.363401067555 -0.196126525062 0
0.363574309804 -0.196119229208 0
0.36368040511 -0.196138587258 0
0.363748405219 -0.196195164814 0
0.363718724758 -0.196297628268 0
0.363584084509 -0.196455701854 0
0.363328929017 -0.196710941121 0
0.362901608268 -0.197088203627 0
0.362280461198 -0.197653837541 0
0.361382023336 -0.198509822529 0
0.36 -0.2 0
0.36 -0.2 0
0.36 -0.2 0
0.36 -0.2 0
0.36 -0.2 0
0.36 -0.2 0
0.36 -0.2 0
0.36 -0.2 0
0.36 -0.2 0
0.36 -0.2 0
0.36 -0.2 0
0.36 -0.2 0
0.36 -0.2 0
0.36 -0.2 0
0.36 -0.2 0
0.36 -0.2 0
0.36 -0.2 0
0.358630000092 -0.19852387335 0
0.357733135573 -0.19767215708 0
0.357084347369 -0.197107523701 0
0.356671700689 -0.196728670359 0
0.356419773306 -0.196474686665 0
0.356283467207 -0.196318950149 0
0.356253284996 -0.196220196916 0
0.356321343911 -0.196166185424 0
0.356427436718 -0.196148623238 0
0.35660023783 -0.196157086354 0
0.356803239155 -0.196181987054 0
0.357029585426 -0.196203465999 0
0.357459155877 -0.196092425972 0
0.357672837803 -0.19595003549 0
0.357903629657 -0.195784180874 0
0.358156096323 -0.195595301059 0
0.358428974028 -0.195375437565 0
0.358714354886 -0.195119412572 0
0.359016358742 -0.194830301662 0
0.35934721897 -0.194504535767 0
0.359702575417 -0.194114718466 0
0.360064308512 -0.19369288305 0
0.360448634374 -0.193212826356 0
0.36086994039 -0.192699241469 0
0.36136320273 -0.19199920145 0
0.362021491686 -0.190899311968 0
0.36250811098 -0.189807249938 0
0.362919333597 -0.188707738378 0
0.363228994024 -0.187643994163 0
0.363456852424 -0.186593201986 0
0.363615338486 -0.18559426181 0
0.363711706814 -0.18461553817 0
0.363748668359 -0.183694893016 0
0.363719068881 -0.182801269981 0
0.363632777759 -0.182011721357 0
0.363498159515 -0.181261523351 0
0.363326313479 -0.180576489607 0
0.363107853406 -0.179943725666 0
0.36286228185 -0.179378811261 0
0.3625814158 -0.1788742079 0
0.362283069344 -0.178435708276 0
0.361951991643 -0.178054357636 0
0.36160536764 -0.177743883808 0
0.361234571348 -0.177489435531 0
0.360856715581 -0.17729746536 0
0.360465271871 -0.177158658381 0
0.36003134988 -0.177044379029 0
0.359597076291 -0.17716955433 0
0.359196467768 -0.177302749221 0
0.35881443202 -0.177490489269 0
0.358447949783 -0.177741083779 0
0.358098459918 -0.178053403434 0
0.357765615288 -0.178432050805 0
0.357455280756 -0.178876176159 0
0.357181619501 -0.179371391714 0
0.356936109214 -0.179937501297 0
0.356717307267 -0.180569955811 0
0.356543327317 -0.181252124287 0
0.356401216014 -0.181989418357 0
0.356319821809 -0.182806653771 0
0.356293962453 -0.183701217626 0
0.35633316964 -0.184619861907 0
0.356426448952 -0.185585662686 0
0.356584174321 -0.186581329277 0
0.356811073355 -0.187628330408 0
0.357125614622 -0.188695701282 0
0.357538514054 -0.189786934756 0
0.358050036426 -0.190893378413 0
0.358581711508 -0.19179809144 0
0.3590537196 -0.192518338169 0
0.359500485267 -0.193107210539 0
0.359897808543 -0.193613346228 0
0.360267659142 -0.194048970867 0
0.360629948879 -0.194448607038 0
0.360965476185 -0.194780406839 0
0.361271097973 -0.195074320422 0
0.361559442019 -0.195334067923 0
0.361834920029 -0.195556809121 0
0.36208950104 -0.195747989931 0
0.362322087208 -0.195915795373 0
0.362537411607 -0.196059714843 0
0.362395016938 -0.192458332635 0
0.357649728817 -0.192462826498 0
0.360046854645 -0.185905056921 0
0.359017857729 -0.186212824965 0
0.363160304249 -0.193944826723 0
0.356831887716 -0.193992053037 0
0.360930751181 -0.186033030467 0
0.360121891189 -0.181832727511 0
0.359875695396 -0.181721948146 0
0.361836669641 -0.190270491894 0
0.358172151744 -0.190227694842 0
0.359861831031 -0.19376931616 0
0.357156228936 -0.196299549479 0
0.362828563899 -0.196372552759 0
0.360586909375 -0.182856873094 0
0.360032459049 -0.186322523612 0
0.359352999047 -0.182797577141 0
0.359985449419 -0.186307934906 0
0.357773197227 -0.193269647978 0
0.362215924665 -0.19319306368 0
0.358856624025 -0.189046996016 0
0.363019289436 -0.195159450735 0
0.356979379305 -0.19519849154 0
0.360088151722 -0.179637866636 0
0.361231814852 -0.188773845772 0
0.361236043998 -0.195752008838 0
0.361033174928 -0.180398892418 0
0.358645119263 -0.195804891849 0
0.359669714149 -0.189316015087 0
0.358990087329 -0.18037355123 0
0.360318021922 -0.189277523587 0
0.363563500597 -0.195521753606 0
0.356437553902 -0.195548303126 0
0.362131896186 -0.189831575506 0
0.357820830886 -0.189986141341 0
0.35947130437 -0.18517575494 0
0.360524929945 -0.184971882693 0
0.360132600336 -0.189943132121 0
0.361490143681 -0.183850215853 0
0.358560110385 -0.183831399067 0
0.360010842659 -0.183283414188 0
0.358700336422 -0.192841003312 0
0.359435156876 -0.179140362173 0
0.358922045078 -0.19207378807 0
0.36105122095 -0.191990356809 0
0.361157204167 -0.192950296041 0
0.362718194936 -0.191886318055 0
0.363030391006 -0.193992299949 0
0.356913229237 -0.194254357214 0
0.35727330958 -0.191906923106 0
0.360787663361 -0.179056529595 0
0.362385634351 -0.194731658469 0
0.357609479627 -0.194778414828 0
0.358630717227 -0.187918926365 0
0.359747138567 -0.183797644888 0
0.361359598872 -0.187906392687 0
0.362182151056 -0.195475291865 0
0.357632133232 -0.195186596653 0
0.361755493944 -0.181223638641 0
0.360208504223 -0.183612518373 0
0.356608557656 -0.196491797466 0
0.357630728384 -0.197801090479 0
0.363393807801 -0.196469378595 0
0.36239828067 -0.19777396709 0
0.358242961991 -0.181175743696 0
0.361179361717 -0.186879559255 0
0.358344437793 -0.197772127023 0
0.358845497988 -0.186867322349 0
0.361495487173 -0.198097868651 0
0.360237281884 -0.196947813356 0
0.359744495869 -0.185057746832 0
0.358477543047 -0.188292239666 0
0.358422277224 -0.193949275809 0
0.361565922986 -0.193886515548 0
0.360170788059 -0.184912084491 0
0.359895478771 -0.178353008169 0
0.361486229549 -0.188078818453 0
0.359512622746 -0.196526238842 0
0.359980487195 -0.181226946324 0
0.357112096898 -0.194253072202 0
0.362891633404 -0.194200616283 0
0.363352546298 -0.195339487742 0
0.36346388101 -0.195678116524 0
0.356536676756 -0.195710637274 0
0.359499995563 -0.187057913117 0
0.360329132726 -0.18216273001 0
0.362443721507 -0.192131611364 0
0.356620740094 -0.195429745191 0
0.360620943333 -0.187001197524 0
0.357537055478 -0.192073270126 0
0.359011550734 -0.188378109544 0
0.359794301463 -0.191317289434 0
0.360163876202 -0.19122519476 0
0.359278020511 -0.190827143006 0
0.361960144907 -0.190335829081 0
0.361036509607 -0.188500575274 0
0.357406208559 -0.195433164274 0
0.362590477738 -0.19539403711 0
0.360351854778 -0.1803343223 0
0.359575695164 -0.181925065186 0
0.358796143957 -0.179128851251 0
0.361818294681 -0.17996249924 0
0.362333723974 -0.182061652876 0
0.358192845508 -0.179997382158 0
0.357670738919 -0.182126956243 0
0.358200290896 -0.190387204576 0
0.3611412332 -0.18865696095 0
0.362108924953 -0.185187109361 0
0.357301217863 -0.192147929124 0
0.358878214124 -0.188636682155 0
0.35792498867 -0.185182879033 0
0.359846352624 -0.183429845646 0
0.360628735531 -0.194684016776 0
0.360151335788 -0.183269237747 0
0.361905011861 -0.193726624748 0
0.362611246538 -0.191815137132 0
0.361099229152 -0.197956298224 0
0.356704054076 -0.19493409887 0
0.363293817876 -0.194906016819 0
0.360444639048 -0.178208873562 0
0.358623567813 -0.190702434707 0
0.361425541694 -0.179116117345 0
0.361330914378 -0.190639081942 0
0.362058965929 -0.18973988874 0
0.363097771712 -0.195726236792 0
0.356901955334 -0.19576054935 0
0.357935771614 -0.189764552821 0
0.358025414445 -0.193851763105 0
0.359508552753 -0.180405378003 0
0.356929155424 -0.193287225156 0
0.358418356716 -0.187990547501 0
0.359050450096 -0.187145072005 0
0.360885994496 -0.190424929941 0
0.356350813582 -0.196158647516 0
0.363647543734 -0.196134544935 0
0.360012266666 -0.187801690447 0
0.358993646028 -0.198146884663 0
0.363073650214 -0.193333528118 0
0.359799865336 -0.18008889794 0
0.361575286892 -0.187961403589 0
0.360951263948 -0.186191089765 0
0.360460376769 -0.192101862333 0
0.356569510615 -0.194924118347 0
0.363427974415 -0.194889861351 0
0.361738107448 -0.191819708011 0
0.36261230481 -0.194211811344 0
0.359259291904 -0.185439408715 0
0.358071045915 -0.192095013287 0
0.361785357673 -0.192013196808 0
0.35910486118 -0.193354032312 0
0.360875338017 -0.193272360539 0
0.36002224273 -0.18197283773 0
0.360577837688 -0.197969981091 0
0.358663315057 -0.198715007897 0
0.359756921352 -0.185078755161 0
0.359263687389 -0.178189048942 0
0.361308060911 -0.198755784487 0
0.36028278703 -0.184991935912 0
0.360971597579 -0.181500368995 0
0.359314568721 -0.197874488322 0
0.36058636635 -0.183937196061 0
0.359968474382 -0.187716126934 0
0.359217449334 -0.194474899342 0
0.360039073003 -0.187658670227 0
0.362519388833 -0.183485316341 0
0.357515499531 -0.183476069023 0
0.358185722915 -0.194703540193 0
0.361805432917 -0.19465330107 0
0.359011785069 -0.181373513639 0
0.360492322534 -0.180971180674 0
0.36005398114 -0.183842574301 0
0.35996725836 -0.183810188374 0
0.357169498574 -0.193342063018 0
0.358626770337 -0.19115145934 0
0.360662721456 -0.18645872165 0
0.358222269925 -0.196623299048 0
0.362783114137 -0.193298017727 0
0.36291514318 -0.192919209961 0
0.36051304856 -0.188699500651 0
0.359308929888 -0.186672811698 0
0.356344034579 -0.195965344846 0
0.363656504944 -0.195936577663 0
0.361323809524 -0.182642333826 0
0.359403157735 -0.183903319604 0
0.359453460522 -0.189031414091 0
0.361442850045 -0.19873967915 0
0.360105240154 -0.180769652312 0
0.363102775734 -0.197045429174 0
0.356916284868 -0.197097444123 0
0.360971186125 -0.185272249856 0
0.359008304433 -0.185294639537 0
0.358477307762 -0.198667162756 0
0.357336285942 -0.193960815238 0
0.357645066492 -0.191037240345 0
0.357124699199 -0.195480735531 0
0.357723788117 -0.197450714705 0
0.35773476377 -0.190983087868 0
0.362378252035 -0.191107548897 0
0.362331565974 -0.196547509836 0
0.362255774599 -0.197475697729 0
0.362911075364 -0.195195866619 0
0.358634974861 -0.18238012056 0
0.3576692118 -0.196501581755 0
0.359842858098 -0.183238818731 0
0.359850003025 -0.198226303678 0
0.359836466447 -0.19175230211 0
0.361027930172 -0.187287677334 0
0.360794660288 -0.190240834687 0
0.360138027976 -0.183083074089 0
0.359193674503 -0.19019904797 0
0.363522555892 -0.195829148331 0
0.361034100804 -0.178416304441 0
0.357814807613 -0.194120463818 0
0.36217819513 -0.194065488289 0
0.359703793515 -0.192585892186 0
0.360261748369 -0.192471634825 0
0.358138916769 -0.192129930798 0
0.357034597386 -0.193019164997 0
0.360382132937 -0.179109706186 0
0.359178966539 -0.193025454159 0
0.35834395751 -0.193048680944 0
0.361641799015 -0.192975013156 0
0.356484669054 -0.195809182011 0
0.363282869048 -0.194453465966 0
0.360630068086 -0.184994572726 0
0.357821643116 -0.195244639894 0
0.362172346247 -0.195202405087 0
0.361622115732 -0.197053346136 0
0.356725279085 -0.194472810538 0
0.357177013137 -0.1958027273 0
0.362821338747 -0.19576787949 0
0.362356474154 -0.18076244666 0
0.360021944185 -0.18229688786 0
0.362915147147 -0.196929426616 0
0.357073158335 -0.196943368519 0
0.35843058338 -0.189003025149 0
0.360811442865 -0.179929837796 0
0.360019216586 -0.184294906928 0
0.359799192178 -0.179202669743 0
0.36244322113 -0.190833569119 0
0.36158092788 -0.189028636374 0
0.358821220982 -0.186883166602 0
0.35829770946 -0.179096792715 0
0.357720600298 -0.180792820368 0
0.362769943868 -0.193293960133 0
0.357159279093 -0.194800648465 0
0.362838372539 -0.194756010345 0
0.36127240264 -0.194256369892 0
0.357537515052 -0.1908899773 0
0.358964834446 -0.186621225789 0
0.359639908616 -0.184965309913 0
0.35859514719 -0.19423378883 0
0.359862370017 -0.195873593711 0
0.362013115326 -0.186949324609 0
0.358020108806 -0.18693653272 0
0.358855905582 -0.189537244497 0
0.361044273624 -0.189455923277 0
0.356451861418 -0.196480240475 0
0.363549725493 -0.196458395968 0
0.359363691775 -0.185173552071 0
0.361079914214 -0.186761642375 0
0.360219836786 -0.185241837833 0
0.361714017363 -0.195436190581 0
0.35888109282 -0.178441939777 0
0.361376309534 -0.190487962662 0
0.363330895565 -0.195863643634 0
0.356669818672 -0.19589593925 0
0.359391935337 -0.190581283278 0
0.359197992167 -0.179677389776 0
0.360578866942 -0.190518001355 0
0.359570170706 -0.184319422702 0
0.360706712366 -0.196366347118 0
0.360856689087 -0.198855385618 0
0.362292328766 -0.190936339989 0
0.358067946993 -0.189512292679 0
0.363320183583 -0.195291198286 0
0.356679547311 -0.195327410968 0
0.363208330202 -0.19613838322 0
0.356776140847 -0.196121923651 0
0.359432401305 -0.181039560293 0
0.362079500069 -0.19133787697 0
0.361943086118 -0.179152927849 0
0.360125931676 -0.1777560841 0
0.359860456028 -0.181053997168 0
0.357042986873 -0.193240769957 0
0.357913530456 -0.191544235404 0
0.358940856152 -0.194007934395 0
0.361042812739 -0.193941943017 0
0.360296860704 -0.187184093071 0
0.360373761256 -0.184046456467 0
0.359597627312 -0.177948227527 0
0.362411854479 -0.197825439284 0
0.357378943839 -0.193904666159 0
0.362597708881 -0.193854346179 0
0.361780175335 -0.189032818821 0
0.357401494827 -0.197646026801 0
0.359190185102 -0.1989303724 0
0.362863851091 -0.192485539696 0
0.358107120192 -0.195590513769 0
0.360302384349 -0.182810450264 0
0.36158157876 -0.189059278573 0
0.361751647554 -0.188648543092 0
0.360437563808 -0.184896380775 0
0.361269549052 -0.187017631591 0
0.358519540589 -0.189132387591 0
0.356859434188 -0.195196855606 0
0.361441484906 -0.180763136896 0
0.361186166895 -0.182105095634 0
0.356918485009 -0.194782977465 0
0.363078506667 -0.194756277278 0
0.35862004161 -0.19448474549 0
0.361367031303 -0.194429556594 0
0.359864278145 -0.18219434827 0
0.36231647997 -0.192620462822 0
0.362308426713 -0.193673135603 0
0.359737273909 -0.182830743096 0
0.358216602594 -0.18873143973 0
0.359527742217 -0.185793509129 0
0.357445523039 -0.192916542733 0
0.357125759905 -0.195518437936 0
0.362872592112 -0.195481238467 0
0.360246756138 -0.198417975917 0
0.360608918538 -0.18633594189 0
0.360568221548 -0.18795202764 0
0.357136761892 -0.192496128324 0
0.36052873138 -0.185744646195 0
0.358552976031 -0.18073466942 0
0.357320491736 -0.1929298029 0
0.360624778154 -0.18717331621 0
0.360886264702 -0.199061754265 0
0.362909194213 -0.182613962551 0
0.359453050797 -0.187941018726 0
0.359160643217 -0.196185603823 0
0.360179650419 -0.181047264974 0
0.359499180838 -0.18644717308 0
0.359879469518 -0.184059167236 0
0.362862161021 -0.18421050637 0
0.35709033215 -0.18260253235 0
0.359428051147 -0.187181062127 0
0.357177175029 -0.184210649048 0
0.359999190424 -0.180395739467 0
0.360144868481 -0.183994989112 0
0.36018588598 -0.178667581025 0
0.363577849859 -0.195921342359 0
0.356423245935 -0.19595142223 0
0.362802318249 -0.181157956803 0
0.362459363351 -0.180030196933 0
0.359716003537 -0.198787378109 0
0.357599018547 -0.180021087658 0
0.357239130656 -0.181184018293 0
0.362680475688 -0.186067665389 0
0.362184918276 -0.187910088238 0
0.360087156667 -0.182395942168 0
0.357356395246 -0.18605848305 0
0.357851885419 -0.187894515285 0
0.36319471206 -0.194822763827 0
0.361445201324 -0.19659609689 0
0.359825205658 -0.186893273817 0
0.36085474449 -0.177904650473 0
0.358675366124 -0.179674195916 0
0.361467947773 -0.178361873795 0
0.360693503598 -0.181237272229 0
0.362982245367 -0.193826283116 0
0.363316988754 -0.19558949534 0
0.356683270637 -0.195623717231 0
0.357667139553 -0.193618163298 0
0.363466583816 -0.195281689659 0
0.356532686141 -0.195315693133 0
0.360344867848 -0.193592786464 0
0.359332884071 -0.185599532381 0
0.360522370191 -0.198764089045 0
0.359569591386 -0.178687273521 0
0.360799190916 -0.188383030494 0
0.360455142287 -0.191856421514 0
0.359484789432 -0.19171409596 0
0.356848859201 -0.194408559115 0
0.360803295298 -0.186122223821 0
0.358355676093 -0.18294716755 0
0.360232854718 -0.183785627513 0
0.362543780779 -0.195621365465 0
0.359970719021 -0.182495413419 0
0.359191315473 -0.186039106186 0
0.361429694077 -0.179783635155 0
0.360012310028 -0.182133935195 0
0.356751462591 -0.194069925579 0
0.359074246179 -0.189760560039 0
0.359607879564 -0.179987082047 0
0.359679401291 -0.190218274566 0
0.35913215246 -0.187887659687 0
0.36191933064 -0.18428009296 0
0.36009175115 -0.190145791871 0
0.359885636489 -0.19009465046 0
0.358118635312 -0.184275629018 0
0.360286817716 -0.186073350432 0
0.360513367996 -0.17959062567 0
0.362001872837 -0.183079061703 0
0.363510174247 -0.195379032585 0
0.356491595768 -0.19538138939 0
0.359194517298 -0.199141644661 0
0.35973319739 -0.183777617858 0
0.363238326561 -0.19401238911 0
0.360269794849 -0.179749396666 0
0.358428389241 -0.178584656731 0
0.35722784984 -0.195168777736 0
0.362769213892 -0.195127821474 0
0.357606418378 -0.195668490576 0
0.362389077297 -0.195631388091 0
0.359180470657 -0.179098954063 0
0.357256105813 -0.192316893755 0
0.361741159411 -0.181973904274 0
0.363128297776 -0.195774563563 0
0.360678840139 -0.185894624106 0
0.358751687187 -0.181685612684 0
0.363146948645 -0.194369709187 0
0.357033611833 -0.195957224205 0
0.362965644856 -0.195924032512 0
0.36074282875 -0.193180749995 0
0.362034505148 -0.191550302178 0
0.361354876454 -0.185808132566 0
0.357459049151 -0.194390133951 0
0.362535950249 -0.194340001972 0
0.358509976572 -0.191635265604 0
0.359959018192 -0.182862468192 0
0.361424855131 -0.191591504069 0
0.360674528679 -0.185186823663 0
0.360696852716 -0.178523607792 0
0.357542642213 -0.191090714529 0
0.358681098509 -0.185828630598 0
0.359294916038 -0.191431605473 0
0.360672222681 -0.191347733148 0
0.361616432299 -0.19308953203 0
0.358573959922 -0.189373445442 0
0.359124164337 -0.199247850638 0
0.358210836544 -0.195083765615 0
0.361780046603 -0.195038704738 0
0.360991862926 -0.179365029229 0
0.361481603362 -0.189509509326 0
0.358546123194 -0.189487167669 0
0.359690938702 -0.184486668955 0
0.360049618177 -0.182925653375 0
0.359361452068 -0.198590358818 0
0.359410672371 -0.188704181106 0
0.358931801691 -0.19172492025 0
0.362675815196 -0.192054186601 0
0.360496387255 -0.19082835684 0
0.360586686719 -0.188729306776 0
0.360321443908 -0.184361033429 0
0.363573043277 -0.1956728636 0
0.356427410089 -0.195704154377 0
0.358879204409 -0.187866348081 0
0.35806701364 -0.193620574572 0
0.361920031878 -0.193546629151 0
0.362011016559 -0.190011215517 0
0.358638288593 -0.193444888582 0
0.361328718557 -0.193356296017 0
0.356301788016 -0.196118542266 0
0.363698884503 -0.196092404897 0
0.358752181082 -0.186972685392 0
0.360960794504 -0.197211848492 0
0.362994960781 -0.1932925181 0
0.360864738935 -0.191836432829 0
0.361434791596 -0.189418541642 0
0.360042667038 -0.182522676938 0
0.359717218775 -0.185651634546 0
0.357870501615 -0.179340053029 0
0.362049647362 -0.19268771496 0
0.363318755326 -0.194502688171 0
0.356676156954 -0.19454290713 0
0.357723412158 -0.19228496309 0
0.35798106896 -0.190036141886 0
0.360364636485 -0.184292901816 0
0.358626766266 -0.190170461526 0
0.359682921618 -0.181341974763 0
0.361595167799 -0.189912144016 0
0.361009865304 -0.18948317945 0
0.359643020145 -0.194726955981 0
0.361149135452 -0.187978677505 0
0.361959688343 -0.180532822335 0
0.361857387671 -0.18894001884 0
0.362917932663 -0.192690540194 0
0.360311392716 -0.195699089313 0
0.358292892236 -0.188541150888 0
0.359657942584 -0.187964814981 0
0.358932491776 -0.197361402459 0
0.358294943019 -0.193131439307 0
0.358588917296 -0.187650292517 0
0.359708177548 -0.183934826552 0
0.358714704142 -0.188110438188 0
0.357880536379 -0.191496748395 0
0.358073460278 -0.180519905703 0
0.357893171088 -0.181506853911 0
0.356838252875 -0.19600126152 0
0.363162011899 -0.195968929566 0
0.363648769163 -0.195894660634 0
0.35635120706 -0.195924005615 0
0.360431177436 -0.177677510651 0
0.360316428204 -0.181011988222 0
0.361391588976 -0.187649964729 0
0.359895745998 -0.182770423916 0
0.3620615245 -0.194606970148 0
0.358566556065 -0.197720146261 0
0.363093837857 -0.193464441993 0
0.360259288325 -0.183688607503 0
0.36011365948 -0.18579381605 0
0.361189324058 -0.187224665299 0
0.358477715366 -0.190197318147 0
0.359191777546 -0.181103154649 0