# vtk DataFile Version 2.0
Generated with Solid Solver
ASCII
DATASET UNSTRUCTURED_GRID
POINTS 999 float 
0.2 4.325 0.0
1.4 4.325 0.0
1.4 4.825 0.0
0.2 4.825 0.0
1.4 4.34523264049 0.0
1.4 4.36751203886 0.0
1.4 4.39204525371 0.0
1.4 4.4190602782 0.0
1.4 4.44880817466 0.0
1.4 4.48156541084 0.0
1.4 4.51763640748 0.0
1.4 4.5573564007 0.0
1.4 4.60109451608 0.0
1.4 4.64925723872 0.0
1.4 4.70229217343 0.0
1.4 4.76069218095 0.0
1.33333333333 4.825 0.0
1.26666666667 4.825 0.0
1.2 4.825 0.0
1.13333333333 4.825 0.0
1.06666666667 4.825 0.0
1.0 4.825 0.0
0.933333333334 4.825 0.0
0.866666666668 4.825 0.0
0.800000000001 4.825 0.0
0.733333333334 4.825 0.0
0.666666666668 4.825 0.0
0.600000000001 4.825 0.0
0.533333333334 4.825 0.0
0.466666666667 4.825 0.0
0.4 4.825 0.0
0.333333333334 4.825 0.0
0.266666666667 4.825 0.0
0.2 4.76069218095 0.0
0.2 4.70229217343 0.0
0.2 4.64925723872 0.0
0.2 4.60109451608 0.0
0.2 4.5573564007 0.0
0.2 4.51763640748 0.0
0.2 4.48156541084 0.0
0.2 4.44880817466 0.0
0.2 4.4190602782 0.0
0.2 4.39204525371 0.0
0.2 4.36751203886 0.0
0.2 4.34523264049 0.0
0.212131543907 4.30926329506 0.0
0.224675715302 4.29385348652 0.0
0.23762369102 4.27878141198 0.0
0.250966423879 4.26405760374 0.0
0.264694484585 4.24969246611 0.0
0.278798324214 4.23569599189 0.0
0.293267939266 4.22207810803 0.0
0.308093289028 4.20884826442 0.0
0.323263842145 4.19601585877 0.0
0.338769084145 4.18358978512 0.0
0.354597997314 4.17157887342 0.0
0.37073960121 4.15999145532 0.0
0.387182441982 4.14883575334 0.0
0.403915091795 4.13811952025 0.0
0.420925712897 4.12785033813 0.0
0.438202430937 4.11803537461 0.0
0.455733079095 4.10868154223 0.0
0.473505374364 4.09979539439 0.0
0.491506842655 4.09138316882 0.0
0.509724826085 4.0834507802 0.0
0.528146580414 4.07600377808 0.0
0.546759103951 4.06904741762 0.0
0.56554943677 4.06258654322 0.0
0.584504260001 4.05662573401 0.0
0.60361041518 4.0511691282 0.0
0.622854334779 4.04622060039 0.0
0.642222678753 4.04178358113 0.0
0.661701681839 4.03786122392 0.0
0.681277836375 4.03445624851 0.0
0.700937245817 4.03157107217 0.0
0.720666255912 4.02920769845 0.0
0.740450894784 4.02736780161 0.0
0.76027736978 4.02605266363 0.0
0.780131702711 4.02526321235 0.0
0.799999999998 4.025 0.0
0.819868297285 4.02526321235 0.0
0.839722630216 4.02605266363 0.0
0.859549105212 4.02736780161 0.0
0.879333744085 4.02920769845 0.0
0.89906275418 4.03157107217 0.0
0.918722163621 4.03445624851 0.0
0.938298318157 4.03786122392 0.0
0.957777321244 4.04178358113 0.0
0.977145665218 4.04622060039 0.0
0.996389584817 4.0511691282 0.0
1.01549574 4.05662573401 0.0
1.03445056323 4.06258654322 0.0
1.05324089605 4.06904741762 0.0
1.07185341958 4.07600377808 0.0
1.09027517391 4.0834507802 0.0
1.10849315734 4.09138316882 0.0
1.12649462563 4.09979539439 0.0
1.1442669209 4.10868154222 0.0
1.16179756906 4.1180353746 0.0
1.1790742871 4.12785033813 0.0
1.1960849082 4.13811952024 0.0
1.21281755802 4.14883575334 0.0
1.22926039879 4.15999145532 0.0
1.24540200269 4.17157887342 0.0
1.26123091585 4.18358978512 0.0
1.27673615785 4.19601585877 0.0
1.29190671097 4.20884826442 0.0
1.30673206073 4.22207810803 0.0
1.32120167579 4.23569599189 0.0
1.33530551541 4.24969246611 0.0
1.34903357612 4.26405760374 0.0
1.36237630898 4.27878141198 0.0
1.3753242847 4.29385348652 0.0
1.38786845609 4.30926329506 0.0
1.05632730172 4.46025283906 0.0
0.549964048968 4.4630053958 0.0
0.806135520676 4.31186690218 0.0
0.603895783049 4.26079310371 0.0
1.22984770884 4.38318704125 0.0
0.3703382852 4.38423552752 0.0
0.995322815839 4.25565031136 0.0
0.728315816804 4.1765935937 0.0
0.872128173905 4.17288724072 0.0
1.14059401893 4.27298468684 0.0
0.461553191009 4.27181671009 0.0
0.784706775856 4.56821390922 0.0
0.398287125272 4.57945970538 0.0
1.20625306554 4.58334743514 0.0
0.624100842742 4.1589824436 0.0
0.5257453845 4.18811776279 0.0
0.978502430793 4.15488737058 0.0
1.07419209812 4.18825154482 0.0
0.364313698077 4.28677035763 0.0
1.23509538257 4.28681716733 0.0
0.68124123937 4.39284548972 0.0
1.31679378691 4.35012066749 0.0
0.283206213094 4.35012066749 0.0
0.791498533126 4.11467141721 0.0
0.931481076052 4.3801344917 0.0
0.966719065571 4.62778042839 0.0
0.684451667517 4.11068036752 0.0
0.618335406951 4.62686910993 0.0
0.450982331762 4.19686171732 0.0
0.915674266355 4.10995633851 0.0
1.14900051594 4.19689012964 0.0
1.30193709687 4.4481448133 0.0
0.298574667609 4.44816296922 0.0
1.05734787542 4.34990107617 0.0
0.539273225177 4.35252599628 0.0
0.709896798149 4.27721026287 0.0
0.895708916005 4.26924194389 0.0
0.813273511364 4.43835766235 0.0
0.559289631452 4.13230879113 0.0
1.04001407307 4.13281539633 0.0
0.801161810585 4.23146244955 0.0
0.665113819616 4.52056650186 0.0
0.852577362173 4.09111846388 0.0
0.390256727869 4.2242806298 0.0
1.20974450479 4.22428104599 0.0
0.921542541183 4.52778058719 0.0
1.14030889032 4.36437344809 0.0
1.15600477272 4.46808538305 0.0
0.435243219029 4.4750581257 0.0
0.462045157798 4.36654654286 0.0
0.735806812738 4.08472269746 0.0
1.30082934537 4.29793772796 0.0
0.299170654625 4.29793772796 0.0
0.533651712118 4.26265983853 0.0
0.666130919144 4.21652131559 0.0
1.0676097303 4.26179469382 0.0
1.08054433577 4.58530946155 0.0
0.506773767255 4.56568295079 0.0
0.626745312844 4.10124420826 0.0
0.933845304214 4.2106954732 0.0
0.293717639664 4.55175000185 0.0
0.312505022079 4.66426411351 0.0
1.3058164124 4.55154930624 0.0
1.29054387065 4.66302765963 0.0
0.973467966326 4.09941619478 0.0
0.487935413164 4.15087084015 0.0
0.461549079751 4.68836834982 0.0
1.11203248746 4.15093503889 0.0
1.14453515393 4.70617370303 0.0
0.840217564202 4.68891146633 0.0
0.585347033288 4.20539048534 0.0
0.619177396637 4.34227576306 0.0
0.331644410315 4.24962190462 0.0
1.26835558968 4.24962190462 0.0
1.01536156978 4.19987473052 0.0
0.809331033562 4.07065709122 0.0
0.982321540791 4.33437358971 0.0
0.725600576914 4.66999651799 0.0
0.812291456186 4.16642942492 0.0
0.335887692543 4.33918235669 0.0
1.26344844681 4.34017131907 0.0
1.23449730504 4.49457441524 0.0
1.34334172095 4.40539551957 0.0
0.256658279045 4.40539551957 0.0
0.741646926828 4.34287908527 0.0
0.674799084703 4.16673768522 0.0
1.18647435526 4.30955189749 0.0
0.360563250283 4.49596479569 0.0
0.873716483853 4.33845499203 0.0
0.418704489949 4.31146264283 0.0
0.492670911224 4.22931614809 0.0
0.403480880356 4.19046776931 0.0
1.19651541215 4.1904686246 0.0
0.728649253738 4.46214546491 0.0
1.00883674467 4.40174664879 0.0
1.11035034557 4.23161841276 0.0
0.261968539765 4.3130079512 0.0
1.33803146023 4.3130079512 0.0
0.74649980488 4.1318354354 0.0
0.927597725248 4.1577597079 0.0
0.892956618256 4.07619338913 0.0
0.659794281787 4.07951387326 0.0
0.587663534405 4.09486537006 0.0
0.942353209926 4.07935300973 0.0
1.01493747319 4.09476013719 0.0
0.613130017774 4.41369803882 0.0
0.449373501074 4.15377191978 0.0
0.514840228377 4.12225850006 0.0
0.497057592 4.41333092106 0.0
1.15061382426 4.15379293084 0.0
1.08514419473 4.12228328152 0.0
0.745617635771 4.23098957592 0.0
0.87523452213 4.59853036549 0.0
0.855262884783 4.2258970831 0.0
1.01126200032 4.53280064162 0.0
1.09391916408 4.40632408872 0.0
1.04436265455 4.71482000827 0.0
0.314320181089 4.38773968607 0.0
1.28649331902 4.38743720145 0.0
0.771211579291 4.06316862024 0.0
0.432259099658 4.24006002157 0.0
0.698583889427 4.07144353526 0.0
1.16802128371 4.238862881 0.0
1.09587629216 4.3086676659 0.0
1.35920470355 4.35666960471 0.0
0.240795296449 4.35666960471 0.0
0.504003580654 4.30815758118 0.0
0.579942709371 4.5342075073 0.0
0.875915224914 4.12815792528 0.0
0.426503136644 4.40717733008 0.0
0.57541416445 4.30365301522 0.0
0.683877978289 4.33161848113 0.0
0.888061695889 4.44633509246 0.0
0.26012287522 4.49859249103 0.0
1.33987712478 4.49859249103 0.0
0.801393572636 4.37060096582 0.0
0.558460082533 4.72496728209 0.0
1.1741923373 4.41132830101 0.0
0.83220012886 4.12779415912 0.0
1.02815069622 4.30053276509 0.0
0.948308583502 4.2880204454 0.0
0.846588933095 4.50834596945 0.0
0.343666800815 4.43485820652 0.0
1.25632767671 4.43480360053 0.0
0.97849585731 4.47031535602 0.0
1.10170977548 4.51507265998 0.0
0.662193131828 4.26809398492 0.0
0.400503668388 4.26881657105 0.0
1.20117145985 4.26130427377 0.0
0.350957892513 4.21796558019 0.0
1.24904210749 4.21796558019 0.0
0.771964652188 4.18905379403 0.0
0.932165148285 4.72736281402 0.0
0.373672364094 4.73321357765 0.0
0.760245937722 4.28409350779 0.0
0.848718469252 4.05767763075 0.0
1.23385612561 4.7358294747 0.0
0.846421485813 4.28065918421 0.0
0.651597058631 4.13043284014 0.0
0.650489852552 4.72138045504 0.0
0.58457834847 4.16375088261 0.0
0.48701309933 4.18859927013 0.0
0.708495738406 4.58856947756 0.0
1.11203398596 4.18878062515 0.0
0.54865558244 4.10250047869 0.0
1.05126102377 4.10234629471 0.0
0.300013757486 4.26259646442 0.0
1.29998624251 4.26259646442 0.0
0.9465032388 4.12718070354 0.0
0.708587583337 4.14146095907 0.0
0.973348904468 4.19537871864 0.0
0.628721855632 4.19538356945 0.0
0.380175010018 4.34021880077 0.0
0.662092932411 4.45899041267 0.0
1.05133526787 4.22221992007 0.0
0.528087045766 4.64327882187 0.0
1.22233124543 4.33521693908 0.0
1.19001193434 4.36273586668 0.0
0.853024099244 4.39544003492 0.0
0.542800296246 4.22324366905 0.0
0.247706318737 4.45239119247 0.0
1.35229368126 4.45239119247 0.0
0.599153768578 4.12953797005 0.0
1.01616570494 4.16227683178 0.0
0.744705786938 4.40569544575 0.0
1.31929001115 4.73702550052 0.0
0.777615355331 4.15113602511 0.0
1.33132411895 4.60631378639 0.0
0.265621610877 4.60975488866 0.0
0.532023338888 4.15374454388 0.0
1.0697792195 4.15241429251 0.0
0.286371037106 4.73010312914 0.0
0.497725885905 4.50153668256 0.0
0.46053455822 4.31587947599 0.0
0.433799237968 4.54629400991 0.0
0.388624781906 4.65094200004 0.0
0.554823673752 4.40451940232 0.0
1.1421595646 4.31818301431 0.0
1.14760043966 4.61655103139 0.0
1.21258698805 4.65320200685 0.0
1.16279096046 4.53292621409 0.0
0.995762647814 4.12508772517 0.0
0.456229040627 4.61456685246 0.0
0.707289391156 4.21520271873 0.0
0.763036833302 4.74285445535 0.0
0.78386198569 4.49787013126 0.0
[...]
POINT_DATA 999
VECTORS Displacement float
0.597432522193 -0.196282178293 0
0.60287641991 -0.19614444794 0
0.6 -0.2 0
0.6 -0.2 0
0.603105336412 -0.196128503806 0
0.603324320604 -0.196107902431 0
0.603519053693 -0.196084380865 0
0.603682771072 -0.196077984666 0
0.603778936291 -0.196098342168 0
0.603836283343 -0.196156110405 0
0.603795452428 -0.196260035514 0
0.603648962179 -0.196420154596 0
0.603381400819 -0.19667815577 0
0.602941187197 -0.197059414585 0
0.602307014939 -0.197630579594 0
0.601395608208 -0.198495632426 0
0.6 -0.2 0
0.6 -0.2 0
0.6 -0.2 0
0.6 -0.2 0
0.6 -0.2 0
0.6 -0.2 0
0.6 -0.2 0
0.6 -0.2 0
0.6 -0.2 0
0.6 -0.2 0
0.6 -0.2 0
0.6 -0.2 0
0.6 -0.2 0
0.6 -0.2 0
0.6 -0.2 0
0.6 -0.2 0
0.6 -0.2 0
0.598653029781 -0.198547562728 0
0.597775991627 -0.197709749011 0
0.597144945608 -0.197153977785 0
0.596748508168 -0.196781077059 0
0.596511146462 -0.196530704943 0
0.596388019241 -0.19637722434 0
0.596369530365 -0.196279831473 0
0.596448113284 -0.196226703874 0
0.596563735446 -0.19620970794 0
0.59674529416 -0.196218607354 0
0.596956396095 -0.196243870789 0
0.597190264893 -0.196265630342 0
0.597632388158 -0.196150776765 0
0.597851736424 -0.196004205002 0
0.598088352739 -0.195833853276 0
0.598346925468 -0.195640122637 0
0.598626329933 -0.195414847582 0
0.598918548345 -0.19515260066 0
0.599228064726 -0.194856211109 0
0.599567559483 -0.194521852698 0
0.599933946242 -0.194119549978 0
0.600307983651 -0.193681098478 0
0.60070972135 -0.193171811966 0
0.601161317679 -0.192579229317 0
0.601639110932 -0.191853297501 0
0.602175717803 -0.19094518197 0
0.602694650404 -0.189824373648 0
0.603101459331 -0.188747470502 0
0.603419470886 -0.187677717913 0
0.603649270141 -0.186628565432 0
0.6038087354 -0.185631686722 0
0.603905894472 -0.18465231442 0
0.60394762998 -0.183716193801 0
0.60390361781 -0.182866184105 0
0.603824543172 -0.182071583838 0
0.603694005826 -0.181322306434 0
0.603525787484 -0.180634444295 0
0.603309226554 -0.180002828039 0
0.603065914926 -0.179436603833 0
0.602786615017 -0.178933535745 0
0.602490039614 -0.17849587638 0
0.60216098279 -0.178113940783 0
0.601816081474 -0.177801555196 0
0.601445781967 -0.17754322786 0
0.601066346213 -0.177341854676 0
0.600672343535 -0.177173787173 0
0.600240003938 -0.177161668546 0
0.599816965484 -0.177258604437 0
0.599418048997 -0.177383570026 0
0.599037061882 -0.177568185257 0
0.598671550895 -0.177815978449 0
0.598322373233 -0.178124320619 0
0.597989684392 -0.178500488531 0
0.597679247511 -0.178943212492 0
0.597405374447 -0.17943749597 0
0.597158633751 -0.180000989827 0
0.596933806798 -0.18062580463 0
0.596750895467 -0.181302050637 0
0.596629765902 -0.182109333937 0
0.596557092718 -0.182927803362 0
0.596532994833 -0.183808115556 0
0.596572340979 -0.184721209364 0
0.596669330086 -0.185692270877 0
0.596828633496 -0.186686474962 0
0.597062607003 -0.187742659755 0
0.597380947481 -0.188808344684 0
0.597810667719 -0.189916072821 0
0.598314834437 -0.190990677187 0
0.598836920801 -0.191872357024 0
0.599292993886 -0.192565145969 0
0.599727341821 -0.193137864455 0
0.600114389004 -0.193631907542 0
0.600475014874 -0.194057710148 0
0.600828440642 -0.194448554848 0
0.601155892935 -0.194773084275 0
0.601454051006 -0.195060436582 0
0.601735248974 -0.195314201363 0
0.602003784094 -0.195531526306 0
0.602251693706 -0.195717710205 0
0.602477842721 -0.195880816385 0
0.602686887182 -0.196020292843 0
0.602502533691 -0.192494173836 0
0.597776055121 -0.192478933654 0
0.600212535275 -0.185953452835 0
0.599202232266 -0.186248856242 0
0.603283447874 -0.193961142917 0
0.596983125388 -0.194007675097 0
0.601117141243 -0.186100803717 0
0.600315175318 -0.181886413121 0
0.600074679505 -0.181785829893 0
0.602011829024 -0.190333457019 0
0.598370132717 -0.190234276737 0
0.599946527041 -0.193790524546 0
0.597238607227 -0.196315070731 0
0.602887204027 -0.196378447142 0
0.600781223013 -0.182906806352 0
0.6002325522 -0.186356653594 0
0.599567086988 -0.182869217744 0
0.600201837144 -0.186394524232 0
0.59795988031 -0.193271056525 0
0.602376154462 -0.193219092308 0
0.599002765848 -0.189077934328 0
0.603152436104 -0.195147240814 0
0.597138545859 -0.195232718495 0
0.60029437314 -0.179700420832 0
0.601374609843 -0.188822352397 0
0.601293216029 -0.195769603148 0
0.601231647465 -0.180454251489 0
0.598712649866 -0.195815994447 0
0.599889867139 -0.189326308585 0
0.599200829725 -0.180440520619 0
0.600533316484 -0.189364618313 0
0.603662095963 -0.195512346205 0
0.596564583543 -0.195580855244 0
0.602280544014 -0.189885648845 0
0.597986063626 -0.190005230563 0
0.59964695351 -0.185220160438 0
0.600703146632 -0.185030438892 0
0.600259825556 -0.189979022629 0
0.601687605147 -0.183896312202 0
0.598788917837 -0.183921068488 0
0.600195933527 -0.183338488455 0
0.598804628976 -0.192860627111 0
0.599644888582 -0.179211953034 0
0.599143383375 -0.19204595535 0
0.601243104507 -0.192041828846 0
0.601249595856 -0.192979636744 0
0.602854798713 -0.191928287721 0
0.603128365035 -0.194015761953 0
0.597034154951 -0.194268723469 0
0.597435046029 -0.191917883496 0
0.600991656152 -0.179111793481 0
0.60253967573 -0.19472692011 0
0.597787199527 -0.194804224498 0
0.598822065849 -0.187943950305 0
0.599934824009 -0.183844448916 0
0.601544360419 -0.187977858632 0
0.602246312372 -0.195493757799 0
0.597720996041 -0.195198521215 0
0.601952023167 -0.181279193802 0
0.600404258933 -0.183677983153 0
0.596700387863 -0.196523025188 0
0.597682544762 -0.197820281513 0
0.603459764078 -0.196457863738 0
0.602432668269 -0.197767071607 0
0.598461448965 -0.18124171845 0
0.601377741051 -0.186913178056 0
0.598388812639 -0.197779880103 0
0.599081083707 -0.186965468205 0
0.601521800123 -0.198102753972 0
0.600280191345 -0.196958865445 0
0.599937961069 -0.185098393987 0
0.598641468475 -0.188321697401 0
0.5986206365 -0.193954313573 0
0.601742206546 -0.193899111349 0
0.600377856049 -0.184988392975 0
0.600109088286 -0.178427266902 0
0.601643881253 -0.188135398653 0
0.599564364601 -0.196537079974 0
0.600178438665 -0.181287842583 0
0.597277090441 -0.194270775557 0
0.603029321521 -0.194209260099 0
0.603437726827 -0.195345353737 0
0.603576838691 -0.195655949535 0
0.596677368204 -0.195754223108 0
0.599658502244 -0.187098566795 0
0.600522487788 -0.182214421383 0
0.602598003738 -0.19217294587 0
0.596732456537 -0.195450878214 0
0.600778518137 -0.187051546337 0
0.597719033419 -0.192076349459 0
0.599215799045 -0.188398030923 0
0.600042266391 -0.191279253893 0
0.600378274102 -0.191297010882 0
0.59940032792 -0.190855407925 0
0.602091899279 -0.190382529279 0
0.601234223785 -0.188579207896 0
0.597578055313 -0.195473785907 0
0.602738307567 -0.195373752619 0
0.60055205531 -0.180390740302 0
0.599781733869 -0.1819916181 0
0.59900974485 -0.179198710988 0
0.602018434732 -0.180019488008 0
0.602528238712 -0.182117750992 0
0.598408856532 -0.180063285231 0
0.597902197236 -0.18220608484 0
0.598342395972 -0.190410485619 0
0.601343046776 -0.188684909695 0
0.602304058798 -0.185224008836 0
0.597445862527 -0.192161964438 0
0.599122105442 -0.188740575772 0
0.598160682292 -0.185281650986 0
0.600030917219 -0.183480957171 0
0.600699761621 -0.194704555181 0
0.600339027924 -0.18332842417 0
0.601990585907 -0.193754543893 0
0.602735600494 -0.19185621167 0
0.601127052953 -0.197963933689 0
0.596851510273 -0.194961189387 0
0.6034135324 -0.194903560774 0
0.600655506608 -0.178261483676 0
0.598837365535 -0.190697341817 0
0.601628420444 -0.179173224715 0
0.601519876616 -0.19070555305 0
0.602221924865 -0.189799620279 0
0.603228530946 -0.195698194166 0
0.59705861809 -0.195808913668 0
0.598117708687 -0.189780021753 0
0.598125936571 -0.193866383023 0
0.599714380427 -0.180472495072 0
0.597074766008 -0.193299798553 0
0.598595661448 -0.188018225928 0
0.599213966963 -0.187181972803 0
0.601007769353 -0.190463501966 0
0.596460935059 -0.196200028187 0
0.603729676767 -0.196113992056 0
0.600161238533 -0.187843976916 0
0.599026834594 -0.19815224539 0
0.603190152123 -0.193360889765 0
0.600004579039 -0.180155094884 0
0.601744828594 -0.188024650916 0
0.601125189701 -0.186251585647 0
0.600562907873 -0.192131607244 0
0.596701999366 -0.194947087353 0
0.603532054202 -0.194894150981 0
0.60184712459 -0.191856672123 0
0.602697966353 -0.1942365249 0
0.599438550318 -0.185480710337 0
0.598270220064 -0.192088059036 0
0.601959529035 -0.192059641794 0
0.599320672466 -0.193337073552 0
0.601068731665 -0.193298439539 0
0.600214922399 -0.182028845274 0
0.600606018398 -0.197977744436 0
0.598691026714 -0.198722883209 0
0.599930040859 -0.185126393446 0
0.599477420718 -0.17826548738 0
0.60132485519 -0.198755275063 0
0.600456838266 -0.185046051195 0
0.601167446887 -0.181554075957 0
0.599349477131 -0.197880639575 0
0.600782118314 -0.18398307473 0
0.600174993818 -0.187742521996 0
0.599297240959 -0.194491459584 0
0.60025856885 -0.18774898222 0
0.602716721521 -0.183531895842 0
0.597749308052 -0.183577471015 0
0.598377379656 -0.194726861443 0
0.601975235492 -0.194649402925 0
0.599224396814 -0.181440535952 0
0.600689030271 -0.181025559035 0
0.600257818224 -0.183912993408 0
0.600158759904 -0.183856456205 0
0.597337339375 -0.193351329689 0
0.598752192089 -0.191175438249 0
0.600864047232 -0.186536631582 0
0.598283475568 -0.196632417387 0
0.602924583539 -0.193322511183 0
0.60304828664 -0.19294986238 0
0.600652935471 -0.188742341391 0
0.599505212961 -0.186704750401 0
0.596469375498 -0.196011264902 0
0.60375344998 -0.195911774679 0
0.601519583282 -0.182694116275 0
0.599621704569 -0.183983007282 0
0.599593379015 -0.189066160439 0
0.601458814936 -0.198732901949 0
0.600304543659 -0.18082834221 0
0.603152779631 -0.197029476256 0
0.596988290523 -0.19713059832 0
0.601169297553 -0.185311247218 0
0.599235950969 -0.185386767688 0
0.598505885111 -0.198681817475 0
0.597448485292 -0.193974203854 0
0.597826220999 -0.191045423261 0
0.597219590246 -0.19549474522 0
0.597780262813 -0.197463494784 0
0.597881772302 -0.191001666521 0
0.602533198899 -0.191158563535 0
0.602382671928 -0.196557986583 0
0.602293997866 -0.197478062925 0
0.602987194887 -0.195211468743 0
0.598857710072 -0.182453693617 0
0.597739657365 -0.196512652256 0
0.600030095639 -0.183288552122 0
0.599876977527 -0.19823216657 0
0.599944996812 -0.191780366164 0
0.601186706042 -0.187341563952 0
0.601023366282 -0.190248161701 0
0.600330863099 -0.183145787273 0
0.599432860322 -0.190296072844 0
0.603605509935 -0.195822247389 0
0.601239904315 -0.178470859563 0
0.597998944298 -0.19413293733 0
0.602338490774 -0.194074705265 0
0.599941772964 -0.192531844369 0
0.600470442595 -0.192517047892 0
0.598259813968 -0.192148937909 0
0.597192887739 -0.193029704357 0
0.600589271267 -0.179167026384 0
0.599276663766 -0.193046433525 0
0.598544959705 -0.193038906493 0
0.601817439034 -0.193005869594 0
0.596596136847 -0.195837696523 0
0.60338370984 -0.194468406916 0
0.600817457072 -0.185059461249 0
0.598004301179 -0.195280875865 0
0.602332309488 -0.19518618701 0
0.601662954163 -0.197064455105 0
0.596852700052 -0.194489436709 0
0.597342265768 -0.19585279673 0
0.602961837442 -0.195737636958 0
0.602554003457 -0.180819436754 0
0.600214928126 -0.182357210935 0
0.602966609758 -0.196925819547 0
0.597147213951 -0.196964839921 0
0.598626991689 -0.18901958065 0
0.601011697811 -0.17998536531 0
0.60019739286 -0.184347533628 0
0.600008092931 -0.179272099577 0
0.602587549992 -0.190883508055 0
0.601762602943 -0.189098491511 0
0.598995353137 -0.186917953966 0
0.598514953625 -0.179165072141 0
0.597938413438 -0.18085591313 0
0.602871990005 -0.193324317498 0
0.597324681028 -0.19482711756 0
0.602978022151 -0.194752460071 0
0.601348814915 -0.194280502824 0
0.597704210995 -0.190903791829 0
0.599152951808 -0.186654376015 0
0.599858142186 -0.185049308541 0
0.598683374772 -0.194249110471 0
0.599920800041 -0.19588754242 0
0.602206607855 -0.186983521185 0
0.598263876734 -0.187039202636 0
0.599067225957 -0.189545167507 0
0.601242061967 -0.189532836554 0
0.596547419056 -0.196521244548 0
0.603618479559 -0.196437072601 0
0.599550239441 -0.18521442069 0
0.601267275274 -0.186832142504 0
0.600417107774 -0.185281415007 0
0.601776283881 -0.195455507834 0
0.599096485326 -0.178515155036 0
0.601499435942 -0.190529346398 0
0.603451910873 -0.195832424409 0
0.596817745151 -0.19594743245 0
0.599623626879 -0.190569948723 0
0.599407634447 -0.17974647126 0
0.600785797821 -0.19059428057 0
0.599753196505 -0.184365336564 0
0.60075610201 -0.196380583427 0
0.600871915442 -0.198858744877 0
0.602422349684 -0.190982017332 0
0.598227598048 -0.189535686865 0
0.603440018175 -0.195278823023 0
0.596826825709 -0.19536245814 0
0.603276378148 -0.19613898524 0
0.596870307875 -0.196143421526 0
0.599638847323 -0.181105917757 0
0.602246536594 -0.191390370553 0
0.602146472708 -0.179211232103 0
0.600343099412 -0.177825426976 0
0.600060851191 -0.18111785466 0
0.597177892 -0.19325402296 0
0.598108257437 -0.191543265697 0
0.599150569584 -0.194011134545 0
0.601231711056 -0.193953278315 0
0.600451390957 -0.187230654952 0
0.600562085239 -0.184108918161 0
0.599810077611 -0.178029173097 0
0.602442873941 -0.197810876431 0
0.597552761083 -0.19391663854 0
0.602745708683 -0.193868633436 0
0.601929586394 -0.189086893626 0
0.597456202488 -0.197674945242 0
0.599210745892 -0.198934079682 0
0.602986985749 -0.192521692979 0
0.59818344526 -0.19560150737 0
0.60049542178 -0.182860276504 0
0.601725492956 -0.189110081913 0
0.601921906041 -0.188712911781 0
0.600636093085 -0.184967440008 0
0.601441940845 -0.187080159231 0
0.598670680647 -0.189160745386 0
0.596966142589 -0.195213067105 0
0.6016390645 -0.180818701309 0
0.601381678073 -0.182158092239 0
0.597075807757 -0.194808822279 0
0.60320893296 -0.194754401756 0
0.598821819971 -0.194501933439 0
0.601547855746 -0.194430280047 0
0.600064407842 -0.182259248425 0
0.602474654648 -0.192655683714 0
0.602397831034 -0.193701666011 0
0.599943618953 -0.182899107886 0
0.598398898317 -0.188753392769 0
0.599697124786 -0.185837397314 0
0.597624195796 -0.192920454705 0
0.597289547087 -0.195560774864 0
0.603011298411 -0.195459538046 0
0.600269317864 -0.198423785421 0
0.600809041251 -0.18637050455 0
0.600773982279 -0.187980311709 0
0.597286403802 -0.192508361496 0
0.600698168857 -0.185799118265 0
0.598767674048 -0.180800598068 0
0.597449059189 -0.19294397286 0
0.600830080842 -0.187255235915 0
0.600898396324 -0.199063147089 0
0.603102492286 -0.182671237219 0
0.599684305899 -0.18803792336 0
0.599219111269 -0.196196658251 0
0.600376823612 -0.181103502234 0
0.599724505923 -0.186539344531 0
0.600059400089 -0.184110330852 0
0.603058528203 -0.184245952975 0
0.597326737329 -0.182707112175 0
0.59962903237 -0.187209854317 0
0.597412296577 -0.184312940674 0
0.600201412303 -0.180457911492 0
0.600325904713 -0.184050516828 0
0.600398016493 -0.178729692043 0
0.60368430764 -0.195892058149 0
0.596557752063 -0.196001420687 0
0.602998252907 -0.181215818707 0
0.60265958059 -0.180087721544 0
0.599735744392 -0.198791179138 0
0.597817397814 -0.180085833384 0
0.597458390506 -0.181243799155 0
0.602873783606 -0.186103526487 0
0.602374769575 -0.187943860576 0
0.600278714024 -0.182447484245 0
0.597598423121 -0.186160952609 0
0.598102845004 -0.188002076699 0
0.603282879321 -0.194837476758 0
0.601491624518 -0.196609906364 0
0.599983092302 -0.186936889105 0
0.601063169046 -0.177955182216 0
0.598888804438 -0.179741971556 0
0.601674191385 -0.17841911011 0
0.600889478279 -0.181291099111 0
0.603115529766 -0.193842704439 0
0.603438184208 -0.195567712626 0
0.596831523299 -0.195666786848 0
0.597776744502 -0.193632426988 0
0.603576277001 -0.195273396796 0
0.596670609363 -0.195347700679 0
0.600429989545 -0.19361647963 0
0.599522488309 -0.185637860343 0
0.600539365669 -0.198768684466 0
0.599780718351 -0.178761645124 0
0.600943286356 -0.188429397807 0
0.600727226437 -0.191769748689 0
0.5997133285 -0.191782779828 0
0.597003045911 -0.194428504396 0
0.600973051771 -0.186179340805 0
0.598584705635 -0.18303090681 0
0.600426736881 -0.183832040231 0
0.602609071864 -0.195637107145 0
0.60016052294 -0.18254867414 0
0.59936412516 -0.186079275732 0
0.601630171498 -0.179840260127 0
0.600204717515 -0.182192089148 0
0.59689189561 -0.19408548857 0
0.599209961816 -0.189790903848 0
0.599813966893 -0.180055029246 0
0.59980557595 -0.190250671903 0
0.599286730175 -0.187923451991 0
0.60211700475 -0.184321606191 0
0.600325279917 -0.190144744334 0
0.600109475691 -0.190183541805 0
0.598350794384 -0.184372009018 0
0.600451429849 -0.186123651101 0
0.600716463063 -0.179646808996 0
0.602198327513 -0.183130329312 0
0.603603187608 -0.195377757463 0
0.596613984011 -0.19540771275 0
0.599211881831 -0.199145560217 0
0.599944964988 -0.183852115696 0
0.603350681004 -0.194030623009 0
0.600473980445 -0.179807947926 0
0.598646519172 -0.178655150751 0
0.597394907482 -0.195202937122 0
0.602911330391 -0.195115002691 0
0.597783561539 -0.195715178107 0
0.602542919269 -0.195604406708 0
0.599391646566 -0.179170240681 0
0.597425239448 -0.192324682726 0
0.601936759082 -0.182028425224 0
0.603199806619 -0.19578176682 0
0.600876334404 -0.185968610831 0
0.598968546158 -0.181753677649 0
0.603273282427 -0.194377186219 0
0.597194425288 -0.196011692778 0
0.603101185429 -0.195889111497 0
0.600832204064 -0.193207528378 0
0.60214997552 -0.191590188726 0
0.601552100662 -0.18584456665 0
0.597633894018 -0.194408917751 0
0.602685845488 -0.194344201333 0
0.598722087265 -0.191621456626 0
0.600146545132 -0.182916654009 0
0.601609107767 -0.191646484107 0
0.600855756158 -0.18524846464 0
0.600903869613 -0.178577318313 0
0.597697205974 -0.191106832793 0
0.598914060073 -0.185924727791 0
0.599528245476 -0.191402383713 0
0.600874676094 -0.191412526858 0
0.601708537347 -0.193119862691 0
0.598777451683 -0.189384852085 0
0.599139621012 -0.199254943626 0
0.598402906984 -0.195116092153 0
0.601950407397 -0.195025938051 0
0.601193992687 -0.179420843437 0
0.601677927295 -0.189533526021 0
0.598799056641 -0.18959690511 0
0.599869256064 -0.1845345666 0
0.600240612794 -0.182975184401 0
0.599385703987 -0.198594457185 0
0.599622480772 -0.18872095262 0
0.599046940621 -0.191748776372 0
0.602819459446 -0.192095278923 0
0.600613413509 -0.190863112137 0
0.600796015371 -0.188814141834 0
0.600501949132 -0.184418516432 0
0.603676680973 -0.195655234635 0
0.596559353014 -0.195743781609 0
0.599076839855 -0.187890595931 0
0.59825887333 -0.193622046135 0
0.602087854389 -0.193566328442 0
0.602178927672 -0.190072398439 0
0.598843415526 -0.193436515608 0
0.601511367032 -0.193380136948 0
0.596419101661 -0.196166214049 0
0.603787821894 -0.196065504256 0
0.598930647997 -0.187005891399 0
0.600998740631 -0.197223015641 0
0.603104741809 -0.193321486654 0
0.600970140809 -0.191869107275 0
0.601621886711 -0.189489899461 0
0.600236420101 -0.182584529248 0
0.599912944946 -0.185689199303 0
0.598089855103 -0.179406874473 0
0.602149836795 -0.192721313285 0
0.603433018758 -0.194511100712 0
0.596818766783 -0.194563191574 0
0.597912065118 -0.192284211611 0
0.598169929653 -0.190047585743 0
0.600560221204 -0.184360261611 0
0.598763560112 -0.190197044851 0
0.599885773007 -0.1814074975 0
0.601727532871 -0.189958123548 0
0.601142907792 -0.189526613266 0
0.599717037756 -0.194744113716 0
0.601342042077 -0.188054352993 0
0.602157992663 -0.180589377739 0
0.60201336243 -0.188997402801 0
0.603047019884 -0.192724325327 0
0.600370305648 -0.195714927706 0
0.598461488007 -0.188567856635 0
0.59980694749 -0.188004092904 0
0.598976956369 -0.197368674175 0
0.598400607013 -0.19314869814 0
0.59877446431 -0.187678029896 0
0.599891019104 -0.183983195832 0
0.598874288056 -0.188142478173 0
0.598014746957 -0.191515777057 0
0.598290073642 -0.180584890798 0
0.598115638476 -0.18157326376 0
0.596992721267 -0.196056963395 0
0.603290408866 -0.195932846426 0
0.603739534323 -0.195877272003 0
0.596470401273 -0.195963062908 0
0.600645225838 -0.177722152354 0
0.600513295399 -0.181066968901 0
0.601589236165 -0.187682115824 0
0.60009760802 -0.182836768828 0
0.602136490015 -0.194630413409 0
0.598609367913 -0.197726965373 0
0.603216634619 -0.193488737157 0
0.600446492125 -0.183749048382 0
0.600325861826 -0.185876625412 0
0.601352564945 -0.18728185902 0
0.598684746977 -0.190200580429 0
0.599401425537 -0.181169842228 0