# vtk DataFile Version 2.0
Generated with Solid Solver
ASCII
DATASET UNSTRUCTURED_GRID
POINTS 999 float 
0.2 4.325 0.0
1.4 4.325 0.0
1.4 4.825 0.0
0.2 4.825 0.0
1.4 4.34523264049 0.0
1.4 4.36751203886 0.0
1.4 4.39204525371 0.0
1.4 4.4190602782 0.0
1.4 4.44880817466 0.0
1.4 4.48156541084 0.0
1.4 4.51763640748 0.0
1.4 4.5573564007 0.0
1.4 4.60109451608 0.0
1.4 4.64925723872 0.0
1.4 4.70229217343 0.0
1.4 4.76069218095 0.0
1.33333333333 4.825 0.0
1.26666666667 4.825 0.0
1.2 4.825 0.0
1.13333333333 4.825 0.0
1.06666666667 4.825 0.0
1.0 4.825 0.0
0.933333333334 4.825 0.0
0.866666666668 4.825 0.0
0.800000000001 4.825 0.0
0.733333333334 4.825 0.0
0.666666666668 4.825 0.0
0.600000000001 4.825 0.0
0.533333333334 4.825 0.0
0.466666666667 4.825 0.0
0.4 4.825 0.0
0.333333333334 4.825 0.0
0.266666666667 4.825 0.0
0.2 4.76069218095 0.0
0.2 4.70229217343 0.0
0.2 4.64925723872 0.0
0.2 4.60109451608 0.0
0.2 4.5573564007 0.0
0.2 4.51763640748 0.0
0.2 4.48156541084 0.0
0.2 4.44880817466 0.0
0.2 4.4190602782 0.0
0.2 4.39204525371 0.0
0.2 4.36751203886 0.0
0.2 4.34523264049 0.0
0.212131543907 4.30926329506 0.0
0.224675715302 4.29385348652 0.0
0.23762369102 4.27878141198 0.0
0.250966423879 4.26405760374 0.0
0.264694484585 4.24969246611 0.0
0.278798324214 4.23569599189 0.0
0.293267939266 4.22207810803 0.0
0.308093289028 4.20884826442 0.0
0.323263842145 4.19601585877 0.0
0.338769084145 4.18358978512 0.0
0.354597997314 4.17157887342 0.0
0.37073960121 4.15999145532 0.0
0.387182441982 4.14883575334 0.0
0.403915091795 4.13811952025 0.0
0.420925712897 4.12785033813 0.0
0.438202430937 4.11803537461 0.0
0.455733079095 4.10868154223 0.0
0.473505374364 4.09979539439 0.0
0.491506842655 4.09138316882 0.0
0.509724826085 4.0834507802 0.0
0.528146580414 4.07600377808 0.0
0.546759103951 4.06904741762 0.0
0.56554943677 4.06258654322 0.0
0.584504260001 4.05662573401 0.0
0.60361041518 4.0511691282 0.0
0.622854334779 4.04622060039 0.0
0.642222678753 4.04178358113 0.0
0.661701681839 4.03786122392 0.0
0.681277836375 4.03445624851 0.0
0.700937245817 4.03157107217 0.0
0.720666255912 4.02920769845 0.0
0.740450894784 4.02736780161 0.0
0.76027736978 4.02605266363 0.0
0.780131702711 4.02526321235 0.0
0.799999999998 4.025 0.0
0.819868297285 4.02526321235 0.0
0.839722630216 4.02605266363 0.0
0.859549105212 4.02736780161 0.0
0.879333744085 4.02920769845 0.0
0.89906275418 4.03157107217 0.0
0.918722163621 4.03445624851 0.0
0.938298318157 4.03786122392 0.0
0.957777321244 4.04178358113 0.0
0.977145665218 4.04622060039 0.0
0.996389584817 4.0511691282 0.0
1.01549574 4.05662573401 0.0
1.03445056323 4.06258654322 0.0
1.05324089605 4.06904741762 0.0
1.07185341958 4.07600377808 0.0
1.09027517391 4.0834507802 0.0
1.10849315734 4.09138316882 0.0
1.12649462563 4.09979539439 0.0
1.1442669209 4.10868154222 0.0
1.16179756906 4.1180353746 0.0
1.1790742871 4.12785033813 0.0
1.1960849082 4.13811952024 0.0
1.21281755802 4.14883575334 0.0
1.22926039879 4.15999145532 0.0
1.24540200269 4.17157887342 0.0
1.26123091585 4.18358978512 0.0
1.27673615785 4.19601585877 0.0
1.29190671097 4.20884826442 0.0
1.30673206073 4.22207810803 0.0
1.32120167579 4.23569599189 0.0
1.33530551541 4.24969246611 0.0
1.34903357612 4.26405760374 0.0
1.36237630898 4.27878141198 0.0
1.3753242847 4.29385348652 0.0
1.38786845609 4.30926329506 0.0
1.05632730172 4.46025283906 0.0
0.549964048968 4.4630053958 0.0
0.806135520676 4.31186690218 0.0
0.603895783049 4.26079310371 0.0
1.22984770884 4.38318704125 0.0
0.3703382852 4.38423552752 0.0
0.995322815839 4.25565031136 0.0
0.728315816804 4.1765935937 0.0
0.872128173905 4.17288724072 0.0
1.14059401893 4.27298468684 0.0
0.461553191009 4.27181671009 0.0
0.784706775856 4.56821390922 0.0
0.398287125272 4.57945970538 0.0
1.20625306554 4.58334743514 0.0
0.624100842742 4.1589824436 0.0
0.5257453845 4.18811776279 0.0
0.978502430793 4.15488737058 0.0
1.07419209812 4.18825154482 0.0
0.364313698077 4.28677035763 0.0
1.23509538257 4.28681716733 0.0
0.68124123937 4.39284548972 0.0
1.31679378691 4.35012066749 0.0
0.283206213094 4.35012066749 0.0
0.791498533126 4.11467141721 0.0
0.931481076052 4.3801344917 0.0
0.966719065571 4.62778042839 0.0
0.684451667517 4.11068036752 0.0
0.618335406951 4.62686910993 0.0
0.450982331762 4.19686171732 0.0
0.915674266355 4.10995633851 0.0
1.14900051594 4.19689012964 0.0
1.30193709687 4.4481448133 0.0
0.298574667609 4.44816296922 0.0
1.05734787542 4.34990107617 0.0
0.539273225177 4.35252599628 0.0
0.709896798149 4.27721026287 0.0
0.895708916005 4.26924194389 0.0
0.813273511364 4.43835766235 0.0
0.559289631452 4.13230879113 0.0
1.04001407307 4.13281539633 0.0
0.801161810585 4.23146244955 0.0
0.665113819616 4.52056650186 0.0
0.852577362173 4.09111846388 0.0
0.390256727869 4.2242806298 0.0
1.20974450479 4.22428104599 0.0
0.921542541183 4.52778058719 0.0
1.14030889032 4.36437344809 0.0
1.15600477272 4.46808538305 0.0
0.435243219029 4.4750581257 0.0
0.462045157798 4.36654654286 0.0
0.735806812738 4.08472269746 0.0
1.30082934537 4.29793772796 0.0
0.299170654625 4.29793772796 0.0
0.533651712118 4.26265983853 0.0
0.666130919144 4.21652131559 0.0
1.0676097303 4.26179469382 0.0
1.08054433577 4.58530946155 0.0
0.506773767255 4.56568295079 0.0
0.626745312844 4.10124420826 0.0
0.933845304214 4.2106954732 0.0
0.293717639664 4.55175000185 0.0
0.312505022079 4.66426411351 0.0
1.3058164124 4.55154930624 0.0
1.29054387065 4.66302765963 0.0
0.973467966326 4.09941619478 0.0
0.487935413164 4.15087084015 0.0
0.461549079751 4.68836834982 0.0
1.11203248746 4.15093503889 0.0
1.14453515393 4.70617370303 0.0
0.840217564202 4.68891146633 0.0
0.585347033288 4.20539048534 0.0
0.619177396637 4.34227576306 0.0
0.331644410315 4.24962190462 0.0
1.26835558968 4.24962190462 0.0
1.01536156978 4.19987473052 0.0
0.809331033562 4.07065709122 0.0
0.982321540791 4.33437358971 0.0
0.725600576914 4.66999651799 0.0
0.812291456186 4.16642942492 0.0
0.335887692543 4.33918235669 0.0
1.26344844681 4.34017131907 0.0
1.23449730504 4.49457441524 0.0
1.34334172095 4.40539551957 0.0
0.256658279045 4.40539551957 0.0
0.741646926828 4.34287908527 0.0
0.674799084703 4.16673768522 0.0
1.18647435526 4.30955189749 0.0
0.360563250283 4.49596479569 0.0
0.873716483853 4.33845499203 0.0
0.418704489949 4.31146264283 0.0
0.492670911224 4.22931614809 0.0
0.403480880356 4.19046776931 0.0
1.19651541215 4.1904686246 0.0
0.728649253738 4.46214546491 0.0
1.00883674467 4.40174664879 0.0
1.11035034557 4.23161841276 0.0
0.261968539765 4.3130079512 0.0
1.33803146023 4.3130079512 0.0
0.74649980488 4.1318354354 0.0
0.927597725248 4.1577597079 0.0
0.892956618256 4.07619338913 0.0
0.659794281787 4.07951387326 0.0
0.587663534405 4.09486537006 0.0
0.942353209926 4.07935300973 0.0
1.01493747319 4.09476013719 0.0
0.613130017774 4.41369803882 0.0
0.449373501074 4.15377191978 0.0
0.514840228377 4.12225850006 0.0
0.497057592 4.41333092106 0.0
1.15061382426 4.15379293084 0.0
1.08514419473 4.12228328152 0.0
0.745617635771 4.23098957592 0.0
0.87523452213 4.59853036549 0.0
0.855262884783 4.2258970831 0.0
1.01126200032 4.53280064162 0.0
1.09391916408 4.40632408872 0.0
1.04436265455 4.71482000827 0.0
0.314320181089 4.38773968607 0.0
1.28649331902 4.38743720145 0.0
0.771211579291 4.06316862024 0.0
0.432259099658 4.24006002157 0.0
0.698583889427 4.07144353526 0.0
1.16802128371 4.238862881 0.0
1.09587629216 4.3086676659 0.0
1.35920470355 4.35666960471 0.0
0.240795296449 4.35666960471 0.0
0.504003580654 4.30815758118 0.0
0.579942709371 4.5342075073 0.0
0.875915224914 4.12815792528 0.0
0.426503136644 4.40717733008 0.0
0.57541416445 4.30365301522 0.0
0.683877978289 4.33161848113 0.0
0.888061695889 4.44633509246 0.0
0.26012287522 4.49859249103 0.0
1.33987712478 4.49859249103 0.0
0.801393572636 4.37060096582 0.0
0.558460082533 4.72496728209 0.0
1.1741923373 4.41132830101 0.0
0.83220012886 4.12779415912 0.0
1.02815069622 4.30053276509 0.0
0.948308583502 4.2880204454 0.0
0.846588933095 4.50834596945 0.0
0.343666800815 4.43485820652 0.0
1.25632767671 4.43480360053 0.0
0.97849585731 4.47031535602 0.0
1.10170977548 4.51507265998 0.0
0.662193131828 4.26809398492 0.0
0.400503668388 4.26881657105 0.0
1.20117145985 4.26130427377 0.0
0.350957892513 4.21796558019 0.0
1.24904210749 4.21796558019 0.0
0.771964652188 4.18905379403 0.0
0.932165148285 4.72736281402 0.0
0.373672364094 4.73321357765 0.0
0.760245937722 4.28409350779 0.0
0.848718469252 4.05767763075 0.0
1.23385612561 4.7358294747 0.0
0.846421485813 4.28065918421 0.0
0.651597058631 4.13043284014 0.0
0.650489852552 4.72138045504 0.0
0.58457834847 4.16375088261 0.0
0.48701309933 4.18859927013 0.0
0.708495738406 4.58856947756 0.0
1.11203398596 4.18878062515 0.0
0.54865558244 4.10250047869 0.0
1.05126102377 4.10234629471 0.0
0.300013757486 4.26259646442 0.0
1.29998624251 4.26259646442 0.0
0.9465032388 4.12718070354 0.0
0.708587583337 4.14146095907 0.0
0.973348904468 4.19537871864 0.0
0.628721855632 4.19538356945 0.0
0.380175010018 4.34021880077 0.0
0.662092932411 4.45899041267 0.0
1.05133526787 4.22221992007 0.0
0.528087045766 4.64327882187 0.0
1.22233124543 4.33521693908 0.0
1.19001193434 4.36273586668 0.0
0.853024099244 4.39544003492 0.0
0.542800296246 4.22324366905 0.0
0.247706318737 4.45239119247 0.0
1.35229368126 4.45239119247 0.0
0.599153768578 4.12953797005 0.0
1.01616570494 4.16227683178 0.0
0.744705786938 4.40569544575 0.0
1.31929001115 4.73702550052 0.0
0.777615355331 4.15113602511 0.0
1.33132411895 4.60631378639 0.0
0.265621610877 4.60975488866 0.0
0.532023338888 4.15374454388 0.0
1.0697792195 4.15241429251 0.0
0.286371037106 4.73010312914 0.0
0.497725885905 4.50153668256 0.0
0.46053455822 4.31587947599 0.0
0.433799237968 4.54629400991 0.0
0.388624781906 4.65094200004 0.0
0.554823673752 4.40451940232 0.0
1.1421595646 4.31818301431 0.0
1.14760043966 4.61655103139 0.0
1.21258698805 4.65320200685 0.0
1.16279096046 4.53292621409 0.0
0.995762647814 4.12508772517 0.0
0.456229040627 4.61456685246 0.0
0.707289391156 4.21520271873 0.0
0.763036833302 4.74285445535 0.0
0.78386198569 4.49787013126 0.0
[...]
POINT_DATA 999
VECTORS Displacement float
-0.00287326052418 -0.196146006398 0
0.0025698565883 -0.196280601905 0
0.0 -0.2 0
0.0 -0.2 0
0.00281209314437 -0.196264060945 0
0.0030459291207 -0.19624230326 0
0.00325694899715 -0.19621703461 0
0.00343833179066 -0.196208192541 0
0.00355364100405 -0.196225419288 0
0.0036319048932 -0.196279077583 0
0.00361375637528 -0.196377691342 0
0.00349210621353 -0.196530587284 0
0.00325128173188 -0.196778913486 0
0.00283993820946 -0.197146891351 0
0.00223623847551 -0.197700157159 0
0.00135732448726 -0.198538056467 0
0.0 -0.2 0
0.0 -0.2 0
0.0 -0.2 0
0.0 -0.2 0
0.0 -0.2 0
0.0 -0.2 0
0.0 -0.2 0
0.0 -0.2 0
0.0 -0.2 0
0.0 -0.2 0
0.0 -0.2 0
0.0 -0.2 0
0.0 -0.2 0
0.0 -0.2 0
0.0 -0.2 0
0.0 -0.2 0
0.0 -0.2 0
-0.00138480699612 -0.198505386198 0
-0.00229471876458 -0.197641048742 0
-0.00295592043101 -0.197066909315 0
-0.00338108690828 -0.196680322415 0
-0.00364512397788 -0.196420312116 0
-0.00379307006665 -0.196259633499 0
-0.00383420037797 -0.196156918501 0
-0.00377650404408 -0.196099662707 0
-0.00368000366862 -0.196079517633 0
-0.00351609075038 -0.196085955675 0
-0.0033212574421 -0.196109460901 0
-0.00310222145383 -0.19613005743 0
-0.0026836877915 -0.196021832168 0
-0.00247458350693 -0.195882341684 0
-0.00224833163826 -0.195719198343 0
-0.00200031355863 -0.195532923008 0
-0.00173170938787 -0.195315460592 0
-0.00145053297446 -0.195061594791 0
-0.00115239546541 -0.194774164599 0
-0.0008249788216 -0.194449545673 0
-0.000471586644343 -0.194058631122 0
-0.00011103567285 -0.193632755067 0
0.000275904547005 -0.193138632604 0
0.000710075117214 -0.192565878532 0
0.00116601535896 -0.191873070785 0
0.00168827721611 -0.19099071219 0
0.00219195192701 -0.189916682861 0
0.00262058771653 -0.188811462644 0
0.00293897798992 -0.18774655515 0
0.00317311339341 -0.186690548049 0
0.00333236522973 -0.185696115609 0
0.00342916594978 -0.184725022774 0
0.00346881148104 -0.183810658761 0
0.00344346733124 -0.182932900287 0
0.00337406369319 -0.182111367956 0
0.00325329406293 -0.181303026164 0
0.00306932822832 -0.180629550873 0
0.00284394365606 -0.180006318166 0
0.00259675445046 -0.179441645294 0
0.0023138893539 -0.178941383175 0
0.00201422163436 -0.178507541172 0
0.00168241173349 -0.178131229689 0
0.0013355495091 -0.17782368482 0
0.000964335391221 -0.17757355229 0
0.000586156527629 -0.17738794538 0
0.000193594285185 -0.177264685254 0
-0.000237386201294 -0.177163163573 0
-0.000660141370009 -0.177171915861 0
-0.00106615134498 -0.177345932916 0
-0.00144534698049 -0.177539336812 0
-0.00180918846405 -0.177795259549 0
-0.00215554435349 -0.178111847874 0
-0.00248567653238 -0.178491462898 0
-0.00279281844178 -0.178938425004 0
-0.00306282838381 -0.179435851697 0
-0.00330551042006 -0.180000430577 0
-0.00352159686943 -0.180632431624 0
-0.00369124801556 -0.181317839383 0
-0.00382217912948 -0.182067684004 0
-0.00390288645563 -0.182865297242 0
-0.00394382973423 -0.183720066848 0
-0.00390337695609 -0.184650748607 0
-0.00380848675215 -0.185625479244 0
-0.00364588892157 -0.186630070593 0
-0.00341429464327 -0.187680776706 0
-0.00310033465101 -0.18874333526 0
-0.00268648776502 -0.189832201281 0
-0.00217494558643 -0.190937380153 0
-0.00163915226704 -0.191847628208 0
-0.00116033702157 -0.192576256828 0
-0.000708183620449 -0.193169739769 0
-0.000306090133803 -0.193679390647 0
6.81882044316e-05 -0.194118021671 0
0.000434749749116 -0.194520438587 0
0.000774374925582 -0.194854816728 0
0.00108398201879 -0.195151211078 0
0.00137627595431 -0.195413417925 0
0.00165565624674 -0.195638600518 0
0.00191415483439 -0.195832275219 0
0.00215069606762 -0.196002619909 0
0.00237000952177 -0.19614920155 0
0.00227824498601 -0.192493058897 0
-0.00244608145454 -0.192481017413 0
-0.000121010834659 -0.185953867867 0
-0.00116822526796 -0.186270250859 0
0.00301622029046 -0.193999256424 0
-0.00328250182699 -0.193969595691 0
0.000742727791567 -0.186080896944 0
-9.75541701327e-05 -0.181896219004 0
-0.0003400390211 -0.181778572913 0
0.00165647777931 -0.190318424676 0
-0.00198527110379 -0.190250447919 0
-0.000211327146654 -0.193791206579 0
-0.00289795084649 -0.196289268974 0
0.00275254025973 -0.196405194934 0
0.000351720476471 -0.182924281087 0
-0.00019258040033 -0.186398719818 0
-0.000864714563109 -0.182853524635 0
-0.000223203637834 -0.186354523069 0
-0.00237314616114 -0.19323694656 0
0.00204222955538 -0.193252428992 0
-0.00127504860265 -0.189086278471 0
0.00286398208123 -0.195231407857 0
-0.00314912885684 -0.195148423258 0
-0.00015222964414 -0.179705018837 0
0.0010876655221 -0.188814108913 0
0.0011779287715 -0.195769931565 0
0.000790988114915 -0.180465919479 0
-0.00140230399399 -0.19581574184 0
-0.000528635204359 -0.18936679553 0
-0.0012401072921 -0.180431707744 0
0.000113556573168 -0.189325000941 0
0.00343910926266 -0.19558372064 0
-0.0036576870337 -0.195509775998 0
0.00197638593474 -0.189873853126 0
-0.00231511740513 -0.190017404819 0
-0.000709365992234 -0.185230104457 0
0.000341402517281 -0.185021847599 0
1.25047084822e-05 -0.189978885278 0
0.00123245325799 -0.183937301591 0
-0.00166536458402 -0.183882313886 0
-0.000187157779542 -0.183339619732 0
-0.0013830241171 -0.192864048288 0
-0.000806864035781 -0.179196107322 0
-0.00124024951339 -0.192041279844 0
0.000858172841043 -0.192045412422 0
0.00106616363043 -0.192977245531 0
0.00256801687753 -0.191931694474 0
0.00291538419737 -0.194031994153 0
-0.00317274504008 -0.194250219304 0
-0.00284937603698 -0.191915183023 0
0.000539045024357 -0.179131453058 0
0.00221538126982 -0.194802765393 0
-0.00253626891676 -0.194728117713 0
-0.00154691897638 -0.187970636861 0
-0.0004598939108 -0.183859208848 0
0.00117417180397 -0.187952290729 0
0.00210863716783 -0.195499618685 0
-0.0024284863975 -0.195191724286 0
0.00150494331699 -0.181286259063 0
6.12017448569e-06 -0.183665475077 0
-0.00345480438551 -0.196460267985 0
-0.00240140208062 -0.19778377306 0
0.00330383011151 -0.196520615518 0
0.00234737884224 -0.197804939016 0
-0.0019864836576 -0.181236525874 0
0.000924117329668 -0.186968466398 0
-0.0016819297269 -0.197770646598 0
-0.00137175905687 -0.186912861103 0
0.00146149146379 -0.19811168987 0
0.000200236568671 -0.196958995673 0
-0.000471269090132 -0.185126120597 0
-0.0016710167594 -0.18833590375 0
-0.00173876632962 -0.193900055911 0
0.00138186352779 -0.193952816808 0
-3.50535136494e-05 -0.184962170854 0
-0.000362617191672 -0.178418260157 0
0.00132527720808 -0.188121941567 0
-0.000526808700942 -0.196537395973 0
-0.000240477184801 -0.181287364849 0
-0.00301816365778 -0.194216660918 0
0.00273388946856 -0.194262834939 0
0.00324527665146 -0.195385489045 0
0.00332489104504 -0.195752686162 0
-0.00357385190002 -0.195657455989 0
-0.000654491654729 -0.18710443422 0
0.00010315092359 -0.182227130917 0
0.00227624367302 -0.192183463249 0
-0.00345827250021 -0.195409315537 0
0.000462294037308 -0.187046048274 0
-0.0026009420819 -0.192067780585 0
-0.00117762020927 -0.188432190459 0
-0.000375047822566 -0.191298290699 0
-4.08574748081e-05 -0.19127623728 0
-0.000829732726332 -0.190859350002 0
0.00182298868541 -0.190374108541 0
0.000842143586734 -0.188547134237 0
-0.00273519551343 -0.195375188055 0
0.00242425793024 -0.195472214382 0
0.000117777396095 -0.180402433392 0
-0.000641850844422 -0.181981492957 0
-0.00144455888473 -0.17918568085 0
0.00156632617418 -0.180027727607 0
0.00206972400824 -0.182131874084 0
-0.00204308456523 -0.180058092066 0
-0.00255743213882 -0.182190238205 0
-0.0019183546655 -0.190419271875 0
0.00088128911219 -0.188743967683 0
0.00184231348951 -0.185284871613 0
-0.00280791737746 -0.192161240356 0
-0.00133958147145 -0.18868396705 0
-0.00230066670811 -0.185222891112 0
-0.000352670612322 -0.183488023214 0
0.000562779179067 -0.19470391936 0
-4.75967922575e-05 -0.18332368119 0
0.00181419996099 -0.19375403097 0
0.00247536454329 -0.191855313451 0
0.0010679507839 -0.197966994661 0
-0.00341066608318 -0.194895445297 0
0.00315036559125 -0.194969656968 0
0.000188473894659 -0.178293082444 0
-0.00153958598701 -0.19071359612 0
0.00117204834663 -0.179187906319 0
0.00114067466983 -0.190689020398 0
0.00188969318415 -0.189785065095 0
0.00294372170885 -0.195807424534 0
-0.00322543757389 -0.195699622424 0
-0.00221407392144 -0.189795578296 0
-0.00204861214637 -0.19386697458 0
-0.000720110232359 -0.180462613925 0
-0.00317831965456 -0.193282113649 0
-0.00174382078849 -0.188037722827 0
-0.00110665423382 -0.187192741698 0
0.000766705790253 -0.19045960453 0
-0.0037295181238 -0.196114159709 0
0.00353857186274 -0.196199882061 0
-0.000133026579031 -0.187844675062 0
-0.00102632812267 -0.198149566868 0
0.00293917419392 -0.193379231496 0
-0.000433313318128 -0.180148993147 0
0.00140256450116 -0.188006064363 0
0.000774265188392 -0.186238159251 0
0.000364500737821 -0.192130438768 0
-0.00352897682132 -0.194896573453 0
0.00330024188661 -0.194944663523 0
0.00162576144022 -0.191852215629 0
0.00251424892659 -0.19424374555 0
-0.000924859893969 -0.185495466551 0
-0.00207916934204 -0.192079106267 0
0.00160326929458 -0.192067492576 0
-0.00106523376422 -0.1932992993 0
0.000681732040931 -0.193335292181 0
-0.000191768107824 -0.182033899694 0
0.000550771573969 -0.197978434288 0
-0.00135203754434 -0.198709186998 0
-0.000421296460328 -0.185131397456 0
-0.000988014226383 -0.178239083755 0
0.00128307662129 -0.198769285744 0
0.000103155646163 -0.185042496704 0
0.000731697809273 -0.181565322109 0
-0.000708752115193 -0.197880002318 0
0.000347750902302 -0.184011599272 0
-0.00025177898542 -0.187788441799 0
-0.000845839093302 -0.194492954229 0
-0.00016837612791 -0.187704864618 0
0.00224822464201 -0.18358736708 0
-0.00271797177804 -0.183524786735 0
-0.00197162412499 -0.194650520662 0
0.00162534660795 -0.194725422355 0
-0.00121269067509 -0.18143182889 0
0.000260492766127 -0.181037582089 0
-0.000152857508408 -0.183895313356 0
-0.000251460974286 -0.183875576446 0
-0.00295905592899 -0.193320725647 0
-0.00147826261973 -0.191181308785 0
0.000464143681077 -0.186505956299 0
-0.00181714696426 -0.196627394987 0
0.00262392377574 -0.193353846384 0
0.00276464154564 -0.19296951149 0
0.00037587876474 -0.188739372106 0
-0.000893987956751 -0.186737912939 0
-0.00375125113529 -0.195913369974 0
0.0035321375473 -0.196009675964 0
0.00107272813708 -0.182713450632 0
-0.000813628885306 -0.183955810485 0
-0.000676364243883 -0.189070537474 0
0.00141652431608 -0.198759670923 0
-0.0001221451491 -0.180834141208 0
0.0030304549817 -0.197093859532 0
-0.00313148322042 -0.197065858089 0
0.000722878238945 -0.185359113409 0
-0.00121085517661 -0.185340225422 0
-0.00153953456452 -0.198654327574 0
-0.00274374580098 -0.193967830832 0
-0.00249519674285 -0.191050734072 0
-0.002939462039 -0.195475756234 0
-0.00231090952551 -0.197441795354 0
-0.00238238421407 -0.191008912082 0
0.00221283491006 -0.191154901562 0
0.00226799183737 -0.196571705344 0
0.00220374369019 -0.197499844265 0
0.00281841346971 -0.195230106773 0
-0.00158947755537 -0.18243876108 0
-0.0023759770406 -0.196499620152 0
-0.000363135886436 -0.183299398859 0
-0.000170430109753 -0.19823215814 0
-0.000260856566075 -0.191781514304 0
0.000866990104379 -0.18733188588 0
0.00057040635231 -0.190297678458 0
-6.51739670948e-05 -0.183137190835 0
-0.00102211043749 -0.190245963234 0
0.00341474192818 -0.195883718222 0
0.000777597118224 -0.178494813365 0
-0.00233475528551 -0.194075835148 0
0.00200394501858 -0.194131414732 0
-0.000467072771865 -0.192517804579 0
6.02705070474e-05 -0.192529456239 0
-0.00195639925339 -0.192153541146 0
-0.00308405170623 -0.193010352489 0
0.000135281713444 -0.179184024848 0
-0.000901708650427 -0.193048992134 0
-0.0018133893042 -0.193009198913 0
0.00145809072531 -0.193034895239 0
-0.00359538396626 -0.19577841218 0
0.00316121068798 -0.194500152123 0
0.00043897762215 -0.185044468596 0
-0.0023289131429 -0.195187498259 0
0.00199825581479 -0.195279377448 0
0.00157485474008 -0.19706964709 0
-0.00336681362131 -0.194459174784 0
-0.00295871074091 -0.195739094166 0
0.00266008645411 -0.195851270009 0
0.00210310507992 -0.180822072447 0
-0.000186978183931 -0.182353736579 0
0.0028441303439 -0.196966602013 0
-0.00297515135155 -0.196923730498 0
-0.00173848840725 -0.18904463005 0
0.000569584178682 -0.179999637817 0
-0.000167287628785 -0.184348388336 0
-0.000445301516401 -0.179264327172 0
0.00228891422901 -0.190877175976 0
0.00139734011391 -0.189074920185 0
-0.00134703850836 -0.186934252533 0
-0.00194473823631 -0.179155788656 0
-0.00251237617538 -0.180854869878 0
0.00265439460398 -0.193330619897 0
-0.00297420804624 -0.194754810597 0
0.00267844129567 -0.194824494924 0
0.00119598504505 -0.194279336916 0
-0.00259330995835 -0.190910674988 0
-0.00122315041395 -0.18667943577 0
-0.000573694161549 -0.185014220969 0
-0.00147139039444 -0.194250740182 0
-0.000185746679038 -0.195887880209 0
0.00173975380336 -0.187043031112 0
-0.00220133949767 -0.1869832247 0
-0.0013206510522 -0.189573843626 0
0.000849582596883 -0.189503582066 0
-0.0036154784592 -0.196438476012 0
0.00345497352048 -0.196519873219 0
-0.000834012140442 -0.185234222446 0
0.000892037947074 -0.186808468084 0
-1.05611437832e-05 -0.185318477217 0
0.00164687202976 -0.19545730698 0
-0.00136629408094 -0.178495832306 0
0.00125220611646 -0.190523390505 0
0.00318455404771 -0.195945936172 0
-0.00344887887759 -0.195833890254 0
-0.000782385488323 -0.190596284257 0
-0.00103753276754 -0.179734114919 0
0.000378200931238 -0.190567601464 0
-0.000625053006527 -0.184377899625 0
0.000660173625886 -0.196380556172 0
0.000837744572064 -0.19886280759 0
0.00215410303647 -0.190975465667 0
-0.00206802578838 -0.189548495467 0
0.00317580910235 -0.195360712221 0
-0.00343662583463 -0.195280493173 0
0.00311903920989 -0.19618029321 0
-0.00328815120706 -0.196102112145 0
-0.000791240604709 -0.181096730135 0
0.00190355062208 -0.191388294291 0
0.00168499803863 -0.179221859167 0
-0.000139435617462 -0.177840951171 0
-0.000361851451627 -0.181112489664 0
-0.00305547972159 -0.193243734525 0
-0.00223404357847 -0.191543025943 0
-0.00122823223603 -0.193954276057 0
0.000851883069004 -0.194009519579 0
0.000143040577931 -0.187228672235 0
0.000178566482897 -0.18409844004 0
-0.000661732779591 -0.177997210635 0
0.00236318231361 -0.19786305798 0
-0.00275869811648 -0.193868996563 0
0.00243239310101 -0.193916125189 0
0.00162625496848 -0.189074418651 0
-0.0026335105445 -0.197619549858 0
-0.000820939431264 -0.198930343559 0
0.00272584488072 -0.192528703008 0
-0.0019448559173 -0.195598679152 0
7.55303350722e-05 -0.182875732622 0
0.00143440583541 -0.189099700828 0
0.00157770210235 -0.188693354466 0
0.000237839556404 -0.184946649278 0
0.00109447563693 -0.18706330555 0
-0.00161405806562 -0.189171328873 0
-0.00321459927492 -0.195186605124 0
0.00119500147994 -0.180827380765 0
0.000940203631273 -0.18217182326 0
-0.00320624642684 -0.194741466753 0
0.00292592853996 -0.194822149755 0
-0.00154443073277 -0.194431274101 0
0.00118064676548 -0.194500527815 0
-0.000348488606761 -0.182249959531 0
0.00214501448189 -0.192675815387 0
0.00221008882535 -0.19370343549 0
-0.000475546902549 -0.182885814307 0
-0.00194305951807 -0.188773737445 0
-0.000643075773102 -0.18584473138 0
-0.00269132866605 -0.19289627883 0
-0.00300820118712 -0.19546088901 0
0.00271277489459 -0.195559317734 0
0.000227033698123 -0.198423991145 0
0.000368357653816 -0.186419766118 0
0.000329661703716 -0.188033013697 0
-0.00297513756391 -0.192501713483 0
0.000355636078757 -0.185792850333 0
-0.00167701372332 -0.180794599751 0
-0.00277436367887 -0.192941194684 0
0.000424708376081 -0.187219729867 0
0.000869302134527 -0.199069707302 0
0.00263443404693 -0.182711225698 0
-0.000759821098054 -0.187987530382 0
-0.000882239743387 -0.196197023386 0
-4.60682357861e-05 -0.181112304595 0
-0.000714128143747 -0.186492652757 0
-0.000310347690266 -0.184114414923 0
0.00258927501144 -0.184317538462 0
-0.00314025382257 -0.182666824192 0
-0.000777905426038 -0.187247604367 0
-0.00305659457221 -0.184244997345 0
-0.000231530076772 -0.180458907598 0
-4.52937098662e-05 -0.184048393235 0
-6.72393760533e-05 -0.178742430175 0
0.00344425194205 -0.195999970549 0
-0.00368160059418 -0.195893503517 0
0.00254884588983 -0.181212172432 0
0.00220217624737 -0.180092604745 0
-0.00029745422393 -0.198790876884 0
-0.00263940577431 -0.180083718274 0
-0.00299218677632 -0.181247438303 0
0.00240437884622 -0.186164720559 0
0.00189996267613 -0.188005980014 0
-0.000130561177008 -0.182458989702 0
-0.00286927633466 -0.18610140867 0
-0.00237097581163 -0.187943575497 0
0.00308692825928 -0.194863981692 0
0.00139482613715 -0.196612372735 0
-0.000330719182125 -0.186939570322 0
0.000594300455935 -0.177988731431 0
-0.00156105739145 -0.17973267919 0
0.00120682556995 -0.178438434129 0
0.000458696420477 -0.181302772828 0
0.00282900516999 -0.193883689628 0
0.00317083922339 -0.195665294043 0
-0.00343507875929 -0.195569148536 0
-0.00241270664133 -0.19363130978 0
0.00333163123107 -0.195346180575 0
-0.00357327994842 -0.19527487987 0
0.000267493572073 -0.193616008881 0
-0.00086765672372 -0.185662189854 0
0.00050501380293 -0.198769751634 0
-0.000679182237688 -0.178742396808 0
0.000655673208526 -0.188423941007 0
0.000289729482664 -0.191783530518 0
-0.000726090046414 -0.191765869385 0
-0.00327053585885 -0.194376014743 0
0.000630293566903 -0.186169320062 0
-0.00187104041046 -0.183004351832 0
4.53830306259e-06 -0.183854593246 0
0.00246536949607 -0.195649271938 0
-0.000239246975116 -0.182556260076 0
-0.000981473841129 -0.186091637736 0
0.00118048586373 -0.179851615958 0
-0.000198486379173 -0.18219275979 0
-0.00335221171307 -0.194054063783 0
-0.00104703752769 -0.189796910105 0
-0.000625382213392 -0.180044837377 0
-0.00043602114149 -0.190252962481 0
-0.00101347699202 -0.187931722126 0
0.00165532513774 -0.18437589178 0
-0.000105727886056 -0.190185509992 0
-0.000323355284073 -0.190142644351 0
-0.00211018843147 -0.184320243929 0
0.000119942566928 -0.18612113908 0
0.000271328635508 -0.179662538354 0
0.00173655820966 -0.183166153984 0
0.003392681661 -0.195433401906 0
-0.00359805801424 -0.195351597176 0
-0.000814479501711 -0.199139860877 0
-0.000479206876232 -0.183830718495 0
0.00310530165319 -0.19406185674 0
3.04399520592e-05 -0.179819213592 0
-0.00181851665976 -0.178641957532 0
-0.00290849048218 -0.195116379573 0
0.00260713909263 -0.195201398753 0
-0.00253968509202 -0.195605865547 0
0.00221885514627 -0.19571361464 0
-0.00106077841718 -0.179154302344 0
-0.00287156426887 -0.192314256564 0
0.00148659896506 -0.182040559016 0
0.00303702978569 -0.195813071691 0
0.000482080459025 -0.185942846977 0
-0.00147332115594 -0.181744715155 0
0.00299870271358 -0.194429691761 0
-0.00309807255436 -0.195890601678 0
0.00280792727106 -0.196010159324 0
0.000658079333273 -0.193206056067 0
0.00191315672228 -0.191585185833 0
0.00109840039571 -0.185899174859 0
-0.00268243536739 -0.194346238374 0
0.00236865970337 -0.194406569225 0
-0.001647422235 -0.191623087699 0
-0.000244710570017 -0.182920982284 0
0.00123659909232 -0.19164455807 0
0.000489036532539 -0.185236169297 0
0.000443450790977 -0.178602971347 0
-0.00257870897108 -0.191112868238 0
-0.00153896877981 -0.185872376877 0
-0.000871318401195 -0.19141391231 0
0.000473636178712 -0.191399890915 0
0.00152192038668 -0.193117498852 0
-0.00159736348324 -0.189410319039 0
-0.000884183044394 -0.199241827251 0
-0.00194688016888 -0.195027116208 0
0.00159973006778 -0.195114680974 0
0.000744197938343 -0.179437287256 0
0.00120396248737 -0.189599224761 0
-0.0016745145001 -0.189533791862 0
-0.00049585051799 -0.184542022827 0
-0.000168194632346 -0.182989037161 0
-0.000653399219456 -0.198593249343 0
-0.000787185352289 -0.188760184397 0
-0.00116498295976 -0.191753097207 0
0.00251796094539 -0.192102797048 0
0.000384943355981 -0.190861299038 0
0.000385512027258 -0.188776176861 0
0.000133685409652 -0.18441276425 0
0.00344287077065 -0.195742104703 0
-0.00367375210357 -0.195656903279 0
-0.00130774970036 -0.187921741913 0
-0.00208689495724 -0.193578059996 0
0.00174102503526 -0.193609459245 0
0.00183693197264 -0.190057637299 0
-0.00152534681636 -0.193396282725 0
0.0011408961444 -0.193419216243 0
-0.00378581353533 -0.19606651711 0
0.00358224423816 -0.196165223231 0
-0.0014200865109 -0.187025075383 0
0.000922156616747 -0.197224051699 0