# vtk DataFile Version 2.0
Generated with Solid Solver
ASCII
DATASET UNSTRUCTURED_GRID
POINTS 999 float 
0.2 4.325 0.0
1.4 4.325 0.0
1.4 4.825 0.0
0.2 4.825 0.0
1.4 4.34523264049 0.0
1.4 4.36751203886 0.0
1.4 4.39204525371 0.0
1.4 4.4190602782 0.0
1.4 4.44880817466 0.0
1.4 4.48156541084 0.0
1.4 4.51763640748 0.0
1.4 4.5573564007 0.0
1.4 4.60109451608 0.0
1.4 4.64925723872 0.0
1.4 4.70229217343 0.0
1.4 4.76069218095 0.0
1.33333333333 4.825 0.0
1.26666666667 4.825 0.0
1.2 4.825 0.0
1.13333333333 4.825 0.0
1.06666666667 4.825 0.0
1.0 4.825 0.0
0.933333333334 4.825 0.0
0.866666666668 4.825 0.0
0.800000000001 4.825 0.0
0.733333333334 4.825 0.0
0.666666666668 4.825 0.0
0.600000000001 4.825 0.0
0.533333333334 4.825 0.0
0.466666666667 4.825 0.0
0.4 4.825 0.0
0.333333333334 4.825 0.0
0.266666666667 4.825 0.0
0.2 4.76069218095 0.0
0.2 4.70229217343 0.0
0.2 4.64925723872 0.0
0.2 4.60109451608 0.0
0.2 4.5573564007 0.0
0.2 4.51763640748 0.0
0.2 4.48156541084 0.0
0.2 4.44880817466 0.0
0.2 4.4190602782 0.0
0.2 4.39204525371 0.0
0.2 4.36751203886 0.0
0.2 4.34523264049 0.0
0.212131543907 4.30926329506 0.0
0.224675715302 4.29385348652 0.0
0.23762369102 4.27878141198 0.0
0.250966423879 4.26405760374 0.0
0.264694484585 4.24969246611 0.0
0.278798324214 4.23569599189 0.0
0.293267939266 4.22207810803 0.0
0.308093289028 4.20884826442 0.0
0.323263842145 4.19601585877 0.0
0.338769084145 4.18358978512 0.0
0.354597997314 4.17157887342 0.0
0.37073960121 4.15999145532 0.0
0.387182441982 4.14883575334 0.0
0.403915091795 4.13811952025 0.0
0.420925712897 4.12785033813 0.0
0.438202430937 4.11803537461 0.0
0.455733079095 4.10868154223 0.0
0.473505374364 4.09979539439 0.0
0.491506842655 4.09138316882 0.0
0.509724826085 4.0834507802 0.0
0.528146580414 4.07600377808 0.0
0.546759103951 4.06904741762 0.0
0.56554943677 4.06258654322 0.0
0.584504260001 4.05662573401 0.0
0.60361041518 4.0511691282 0.0
0.622854334779 4.04622060039 0.0
0.642222678753 4.04178358113 0.0
0.661701681839 4.03786122392 0.0
0.681277836375 4.03445624851 0.0
0.700937245817 4.03157107217 0.0
0.720666255912 4.02920769845 0.0
0.740450894784 4.02736780161 0.0
0.76027736978 4.02605266363 0.0
0.780131702711 4.02526321235 0.0
0.799999999998 4.025 0.0
0.819868297285 4.02526321235 0.0
0.839722630216 4.02605266363 0.0
0.859549105212 4.02736780161 0.0
0.879333744085 4.02920769845 0.0
0.89906275418 4.03157107217 0.0
0.918722163621 4.03445624851 0.0
0.938298318157 4.03786122392 0.0
0.957777321244 4.04178358113 0.0
0.977145665218 4.04622060039 0.0
0.996389584817 4.0511691282 0.0
1.01549574 4.05662573401 0.0
1.03445056323 4.06258654322 0.0
1.05324089605 4.06904741762 0.0
1.07185341958 4.07600377808 0.0
1.09027517391 4.0834507802 0.0
1.10849315734 4.09138316882 0.0
1.12649462563 4.09979539439 0.0
1.1442669209 4.10868154222 0.0
1.16179756906 4.1180353746 0.0
1.1790742871 4.12785033813 0.0
1.1960849082 4.13811952024 0.0
1.21281755802 4.14883575334 0.0
1.22926039879 4.15999145532 0.0
1.24540200269 4.17157887342 0.0
1.26123091585 4.18358978512 0.0
1.27673615785 4.19601585877 0.0
1.29190671097 4.20884826442 0.0
1.30673206073 4.22207810803 0.0
1.32120167579 4.23569599189 0.0
1.33530551541 4.24969246611 0.0
1.34903357612 4.26405760374 0.0
1.36237630898 4.27878141198 0.0
1.3753242847 4.29385348652 0.0
1.38786845609 4.30926329506 0.0
1.05632730172 4.46025283906 0.0
0.549964048968 4.4630053958 0.0
0.806135520676 4.31186690218 0.0
0.603895783049 4.26079310371 0.0
1.22984770884 4.38318704125 0.0
0.3703382852 4.38423552752 0.0
0.995322815839 4.25565031136 0.0
0.728315816804 4.1765935937 0.0
0.872128173905 4.17288724072 0.0
1.14059401893 4.27298468684 0.0
0.461553191009 4.27181671009 0.0
0.784706775856 4.56821390922 0.0
0.398287125272 4.57945970538 0.0
1.20625306554 4.58334743514 0.0
0.624100842742 4.1589824436 0.0
0.5257453845 4.18811776279 0.0
0.978502430793 4.15488737058 0.0
1.07419209812 4.18825154482 0.0
0.364313698077 4.28677035763 0.0
1.23509538257 4.28681716733 0.0
0.68124123937 4.39284548972 0.0
1.31679378691 4.35012066749 0.0
0.283206213094 4.35012066749 0.0
0.791498533126 4.11467141721 0.0
0.931481076052 4.3801344917 0.0
0.966719065571 4.62778042839 0.0
0.684451667517 4.11068036752 0.0
0.618335406951 4.62686910993 0.0
0.450982331762 4.19686171732 0.0
0.915674266355 4.10995633851 0.0
1.14900051594 4.19689012964 0.0
1.30193709687 4.4481448133 0.0
0.298574667609 4.44816296922 0.0
1.05734787542 4.34990107617 0.0
0.539273225177 4.35252599628 0.0
0.709896798149 4.27721026287 0.0
0.895708916005 4.26924194389 0.0
0.813273511364 4.43835766235 0.0
0.559289631452 4.13230879113 0.0
1.04001407307 4.13281539633 0.0
0.801161810585 4.23146244955 0.0
0.665113819616 4.52056650186 0.0
0.852577362173 4.09111846388 0.0
0.390256727869 4.2242806298 0.0
1.20974450479 4.22428104599 0.0
0.921542541183 4.52778058719 0.0
1.14030889032 4.36437344809 0.0
1.15600477272 4.46808538305 0.0
0.435243219029 4.4750581257 0.0
0.462045157798 4.36654654286 0.0
0.735806812738 4.08472269746 0.0
1.30082934537 4.29793772796 0.0
0.299170654625 4.29793772796 0.0
0.533651712118 4.26265983853 0.0
0.666130919144 4.21652131559 0.0
1.0676097303 4.26179469382 0.0
1.08054433577 4.58530946155 0.0
0.506773767255 4.56568295079 0.0
0.626745312844 4.10124420826 0.0
0.933845304214 4.2106954732 0.0
0.293717639664 4.55175000185 0.0
0.312505022079 4.66426411351 0.0
1.3058164124 4.55154930624 0.0
1.29054387065 4.66302765963 0.0
0.973467966326 4.09941619478 0.0
0.487935413164 4.15087084015 0.0
0.461549079751 4.68836834982 0.0
1.11203248746 4.15093503889 0.0
1.14453515393 4.70617370303 0.0
0.840217564202 4.68891146633 0.0
0.585347033288 4.20539048534 0.0
0.619177396637 4.34227576306 0.0
0.331644410315 4.24962190462 0.0
1.26835558968 4.24962190462 0.0
1.01536156978 4.19987473052 0.0
0.809331033562 4.07065709122 0.0
0.982321540791 4.33437358971 0.0
0.725600576914 4.66999651799 0.0
0.812291456186 4.16642942492 0.0
0.335887692543 4.33918235669 0.0
1.26344844681 4.34017131907 0.0
1.23449730504 4.49457441524 0.0
1.34334172095 4.40539551957 0.0
0.256658279045 4.40539551957 0.0
0.741646926828 4.34287908527 0.0
0.674799084703 4.16673768522 0.0
1.18647435526 4.30955189749 0.0
0.360563250283 4.49596479569 0.0
0.873716483853 4.33845499203 0.0
0.418704489949 4.31146264283 0.0
0.492670911224 4.22931614809 0.0
0.403480880356 4.19046776931 0.0
1.19651541215 4.1904686246 0.0
0.728649253738 4.46214546491 0.0
1.00883674467 4.40174664879 0.0
1.11035034557 4.23161841276 0.0
0.261968539765 4.3130079512 0.0
1.33803146023 4.3130079512 0.0
0.74649980488 4.1318354354 0.0
0.927597725248 4.1577597079 0.0
0.892956618256 4.07619338913 0.0
0.659794281787 4.07951387326 0.0
0.587663534405 4.09486537006 0.0
0.942353209926 4.07935300973 0.0
1.01493747319 4.09476013719 0.0
0.613130017774 4.41369803882 0.0
0.449373501074 4.15377191978 0.0
0.514840228377 4.12225850006 0.0
0.497057592 4.41333092106 0.0
1.15061382426 4.15379293084 0.0
1.08514419473 4.12228328152 0.0
0.745617635771 4.23098957592 0.0
0.87523452213 4.59853036549 0.0
0.855262884783 4.2258970831 0.0
1.01126200032 4.53280064162 0.0
1.09391916408 4.40632408872 0.0
1.04436265455 4.71482000827 0.0
0.314320181089 4.38773968607 0.0
1.28649331902 4.38743720145 0.0
0.771211579291 4.06316862024 0.0
0.432259099658 4.24006002157 0.0
0.698583889427 4.07144353526 0.0
1.16802128371 4.238862881 0.0
1.09587629216 4.3086676659 0.0
1.35920470355 4.35666960471 0.0
0.240795296449 4.35666960471 0.0
0.504003580654 4.30815758118 0.0
0.579942709371 4.5342075073 0.0
0.875915224914 4.12815792528 0.0
0.426503136644 4.40717733008 0.0
0.57541416445 4.30365301522 0.0
0.683877978289 4.33161848113 0.0
0.888061695889 4.44633509246 0.0
0.26012287522 4.49859249103 0.0
1.33987712478 4.49859249103 0.0
0.801393572636 4.37060096582 0.0
0.558460082533 4.72496728209 0.0
1.1741923373 4.41132830101 0.0
0.83220012886 4.12779415912 0.0
1.02815069622 4.30053276509 0.0
0.948308583502 4.2880204454 0.0
0.846588933095 4.50834596945 0.0
0.343666800815 4.43485820652 0.0
1.25632767671 4.43480360053 0.0
0.97849585731 4.47031535602 0.0
1.10170977548 4.51507265998 0.0
0.662193131828 4.26809398492 0.0
0.400503668388 4.26881657105 0.0
1.20117145985 4.26130427377 0.0
0.350957892513 4.21796558019 0.0
1.24904210749 4.21796558019 0.0
0.771964652188 4.18905379403 0.0
0.932165148285 4.72736281402 0.0
0.373672364094 4.73321357765 0.0
0.760245937722 4.28409350779 0.0
0.848718469252 4.05767763075 0.0
1.23385612561 4.7358294747 0.0
0.846421485813 4.28065918421 0.0
0.651597058631 4.13043284014 0.0
0.650489852552 4.72138045504 0.0
0.58457834847 4.16375088261 0.0
0.48701309933 4.18859927013 0.0
0.708495738406 4.58856947756 0.0
1.11203398596 4.18878062515 0.0
0.54865558244 4.10250047869 0.0
1.05126102377 4.10234629471 0.0
0.300013757486 4.26259646442 0.0
1.29998624251 4.26259646442 0.0
0.9465032388 4.12718070354 0.0
0.708587583337 4.14146095907 0.0
0.973348904468 4.19537871864 0.0
0.628721855632 4.19538356945 0.0
0.380175010018 4.34021880077 0.0
0.662092932411 4.45899041267 0.0
1.05133526787 4.22221992007 0.0
0.528087045766 4.64327882187 0.0
1.22233124543 4.33521693908 0.0
1.19001193434 4.36273586668 0.0
0.853024099244 4.39544003492 0.0
0.542800296246 4.22324366905 0.0
0.247706318737 4.45239119247 0.0
1.35229368126 4.45239119247 0.0
0.599153768578 4.12953797005 0.0
1.01616570494 4.16227683178 0.0
0.744705786938 4.40569544575 0.0
1.31929001115 4.73702550052 0.0
0.777615355331 4.15113602511 0.0
1.33132411895 4.60631378639 0.0
0.265621610877 4.60975488866 0.0
0.532023338888 4.15374454388 0.0
1.0697792195 4.15241429251 0.0
0.286371037106 4.73010312914 0.0
0.497725885905 4.50153668256 0.0
0.46053455822 4.31587947599 0.0
0.433799237968 4.54629400991 0.0
0.388624781906 4.65094200004 0.0
0.554823673752 4.40451940232 0.0
1.1421595646 4.31818301431 0.0
1.14760043966 4.61655103139 0.0
1.21258698805 4.65320200685 0.0
1.16279096046 4.53292621409 0.0
0.995762647814 4.12508772517 0.0
0.456229040627 4.61456685246 0.0
0.707289391156 4.21520271873 0.0
0.763036833302 4.74285445535 0.0
0.78386198569 4.49787013126 0.0
[...]
POINT_DATA 999
VECTORS Displacement float
0.598640073655 -0.11846255809 0
0.601413963282 -0.118433614949 0
0.6 -0.12 0
0.6 -0.12 0
0.6015025671 -0.118426047793 0
0.601588528185 -0.118415006523 0
0.601665165657 -0.118401002084 0
0.601728762601 -0.1183917152 0
0.601763690345 -0.118391558873 0
0.601781110618 -0.118405163962 0
0.601754767146 -0.11843663592 0
0.601680453948 -0.118490851494 0
0.601550791345 -0.118586946575 0
0.601342643949 -0.118737392437 0
0.601046907783 -0.11897294214 0
0.600627748765 -0.11934271679 0
0.6 -0.12 0
0.6 -0.12 0
0.6 -0.12 0
0.6 -0.12 0
0.6 -0.12 0
0.6 -0.12 0
0.6 -0.12 0
0.6 -0.12 0
0.6 -0.12 0
0.6 -0.12 0
0.6 -0.12 0
0.6 -0.12 0
0.6 -0.12 0
0.6 -0.12 0
0.6 -0.12 0
0.6 -0.12 0
0.6 -0.12 0
0.599383883484 -0.119355182706 0
0.598971082797 -0.118991610648 0
0.598668641815 -0.118758145742 0
0.598472206468 -0.118608015088 0
0.598348722258 -0.118513256934 0
0.598278055357 -0.118460525307 0
0.59825553613 -0.118430890516 0
0.598276732802 -0.118418503016 0
0.598315091599 -0.118419482168 0
0.59838173096 -0.118429318854 0
0.598461078861 -0.118443652808 0
0.598549415668 -0.118454897142 0
0.598714560206 -0.11841527102 0
0.598796288233 -0.118363597398 0
0.598884812887 -0.118303863209 0
0.598981666569 -0.118235981006 0
0.599086097098 -0.118157211246 0
0.599195438878 -0.118065658053 0
0.599310623618 -0.117962857379 0
0.599435738881 -0.117847474049 0
0.599568340809 -0.117711539174 0
0.599703016233 -0.117565247394 0
0.599845320777 -0.11739942272 0
0.599998217926 -0.117214437059 0
0.600154214913 -0.117004516271 0
0.600318798864 -0.116771839314 0
0.600490143327 -0.116512296616 0
0.600672837516 -0.116218557316 0
0.600859416015 -0.115885337438 0
0.601067720526 -0.1155029122 0
0.601275732844 -0.115055159339 0
0.601511426205 -0.114492451787 0
0.601741629984 -0.113779776723 0
0.601916944792 -0.113024645051 0
0.602014886498 -0.112319302889 0
0.602051717836 -0.111638362509 0
0.60203816557 -0.111013257719 0
0.601968715098 -0.110428049296 0
0.60186385983 -0.109903501947 0
0.601718096555 -0.109431203072 0
0.601549989059 -0.109023713675 0
0.601345238206 -0.108665837914 0
0.601122378465 -0.108375757464 0
0.600871412462 -0.108143334998 0
0.600614064352 -0.107973309632 0
0.600345881799 -0.107865862073 0
0.600053968916 -0.10783382092 0
0.599762986614 -0.107877104695 0
0.599485287415 -0.107980683433 0
0.599223736145 -0.108146806593 0
0.598978158787 -0.108376798201 0
0.598751627345 -0.108666708002 0
0.598543502032 -0.109022750126 0
0.598363801913 -0.109441563755 0
0.598227432068 -0.109906489626 0
0.598121738327 -0.110427998099 0
0.598052750509 -0.111020273843 0
0.598039357848 -0.111650543079 0
0.598075663523 -0.112330392601 0
0.598175968492 -0.113043884911 0
0.598353034445 -0.113793744848 0
0.598576760668 -0.114489395185 0
0.598810126172 -0.115050757806 0
0.599015807729 -0.115496000861 0
0.599221757037 -0.115876150723 0
0.599406168828 -0.116207456785 0
0.59958691082 -0.116499646491 0
0.599756482772 -0.116757815512 0
0.599919399413 -0.116989202851 0
0.600073782055 -0.117197937739 0
0.600225136116 -0.117381839704 0
0.600365960614 -0.117546616817 0
0.600499209387 -0.117691881933 0
0.600630368466 -0.117826777888 0
0.600754007706 -0.117941094892 0
0.600867698534 -0.118042868443 0
0.600975550462 -0.118133407664 0
0.601078483785 -0.118211168975 0
0.60117382431 -0.11827804466 0
0.601260828766 -0.118336779993 0
0.60134103946 -0.118387427392 0
0.601298731409 -0.116723305938 0
0.598764502106 -0.116711274512 0
0.600063470593 -0.113154933037 0
0.599159937626 -0.113811885028 0
0.601605133678 -0.11756527971 0
0.598441422357 -0.117581455752 0
0.600884356138 -0.113727801997 0
0.599913581478 -0.110881927604 0
0.600148284279 -0.11081889372 0
0.601174928022 -0.116175566138 0
0.598891835564 -0.116146385517 0
0.599940844035 -0.117132267462 0
0.598643665506 -0.118448950342 0
0.60137213957 -0.118480028247 0
0.599916435465 -0.11202239856 0
0.599539844863 -0.114519665889 0
0.600115902728 -0.112021599846 0
0.600534745887 -0.114513312453 0
0.598822533477 -0.117373684574 0
0.601235094346 -0.11735147449 0
0.599310715139 -0.114914570977 0
0.60152742057 -0.118053706347 0
0.598523797968 -0.118074799709 0
0.600069878381 -0.109412872364 0
0.600805475376 -0.114808240608 0
0.600643827408 -0.118100028508 0
0.600421895501 -0.110185108671 0
0.599319967937 -0.118128827772 0
0.599504412898 -0.116053617661 0
0.599656094723 -0.110173653511 0
0.600565666956 -0.116043990799 0
0.601728328881 -0.118168902255 0
0.598312041211 -0.118185305215 0
0.601302649961 -0.115637896424 0
0.598736923041 -0.115706797107 0
0.599556199344 -0.112858843596 0
0.60052019237 -0.112765129275 0
0.600103046712 -0.115271805736 0
0.600278349915 -0.113214460371 0
0.599812376671 -0.113206033358 0
0.600038859274 -0.11166070138 0
0.599313210411 -0.116744143699 0
0.599758742509 -0.109156423118 0
0.599276090391 -0.116997544548 0
0.600788746551 -0.116983404185 0
0.600643837551 -0.116787069849 0
0.60148915756 -0.116678030964 0
0.601542738194 -0.117492427772 0
0.598479634609 -0.117601958642 0
0.598561088131 -0.116674054502 0
0.600437191594 -0.109131369026 0
0.601286036161 -0.117910643695 0
0.598770684626 -0.117931224359 0
0.598989804852 -0.114956829049 0
0.599563857785 -0.112261589123 0
0.601068488529 -0.11496585795 0
0.601105488555 -0.118040280985 0
0.598828365589 -0.11792316934 0
0.600740126219 -0.111095657713 0
0.600477569966 -0.112163878401 0
0.598416093845 -0.118545505032 0
0.598900594129 -0.119077926915 0
0.601613125652 -0.118530065295 0
0.601127629859 -0.119062493125 0
0.599316706671 -0.11107766892 0
0.600049096365 -0.115211538621 0
0.599205845555 -0.119046630908 0
0.600026703545 -0.115205834126 0
0.600727033337 -0.11918671582 0
0.600130039198 -0.118615867185 0
0.599426567734 -0.113428303957 0
0.599025278473 -0.114704237049 0
0.59908700849 -0.117643074303 0
0.600974916253 -0.117624487518 0
0.600601675922 -0.1133733399 0
0.599973306088 -0.108604599786 0
0.601023253521 -0.114615667439 0
0.599758129586 -0.11842584351 0
0.600051929042 -0.110413895072 0
0.598565401096 -0.117716623181 0
0.601490188776 -0.117696466541 0
0.601638282888 -0.11807799344 0
0.60169255657 -0.118234450067 0
0.598352531509 -0.118256923913 0
0.599672458628 -0.11381336869 0
0.599895880693 -0.111293746406 0
0.601358471843 -0.116901665897 0
0.598387404914 -0.118117369299 0
0.60047208759 -0.113806300579 0
0.598688985056 -0.116864146218 0
0.599169919882 -0.115431854433 0
0.599615901453 -0.116791580181 0
0.600453049024 -0.116777491122 0
0.599604482679 -0.115735178188 0
0.601163641158 -0.115709221394 0
0.600911650565 -0.115492343775 0
0.598693276578 -0.118170416828 0
0.601361853246 -0.118146929266 0
0.600122128263 -0.109909401533 0
0.600115793668 -0.111172640229 0
0.599386160909 -0.109287612648 0
0.600969412199 -0.110079626034 0
0.600997784168 -0.111987418999 0
0.59910652925 -0.11012345821 0
0.599084102814 -0.112068635245 0
0.598976760331 -0.115679989486 0
0.600059768318 -0.116022599852 0
0.600508640097 -0.114432718881 0
0.598583649419 -0.116678519038 0
0.600014402143 -0.116012464778 0
0.599571712787 -0.11443243928 0
0.599808467593 -0.111794658847 0
0.60034392245 -0.117574005719 0
0.600256197674 -0.111703833822 0
0.601014109365 -0.117220730735 0
0.601435314898 -0.116531342665 0
0.600549780401 -0.119106681926 0
0.59840904584 -0.117961156636 0
0.601637485603 -0.117947028667 0
0.60029828194 -0.108526197137 0
0.599114812399 -0.11645823871 0
0.600823847849 -0.109319088498 0
0.600938009688 -0.116447314721 0
0.601292760058 -0.115762052071 0
0.601553141531 -0.118260202467 0
0.59849747689 -0.118284944998 0
0.598764367205 -0.115767711072 0
0.598987463484 -0.117282833178 0
0.599908848519 -0.110018059146 0
0.59845766012 -0.117246535923 0
0.59893285843 -0.114743256311 0
0.599349896994 -0.113960511718 0
0.600542712616 -0.115553284643 0
0.598294339751 -0.118415137486 0
0.601738893559 -0.118396160813 0
0.600034425039 -0.114173075015 0
0.599507863872 -0.119188475305 0
0.60158738615 -0.117267849422 0
0.599982648684 -0.109717742474 0
0.601127374488 -0.114751841369 0
0.600800871479 -0.113579335739 0
0.600275191764 -0.11634162404 0
0.598352818494 -0.11793592802 0
0.601688521488 -0.117920636257 0
0.600981927025 -0.116323192475 0
0.601342536907 -0.117521012773 0
0.599355280632 -0.11315269976 0
0.59892375518 -0.116945292403 0
0.60108554431 -0.116936010058 0
0.599351032772 -0.117442785406 0
0.600714492192 -0.117425304435 0
0.599970029055 -0.110884103086 0
0.600297997075 -0.119092066403 0
0.599373944157 -0.119457700212 0
0.599813201368 -0.112717400719 0
0.599585637707 -0.108547801728 0
0.600619343129 -0.119474153342 0
0.600281335714 -0.112678415744 0
0.600252169001 -0.111050379062 0
0.599659928646 -0.11905196249 0
0.599830393654 -0.112932739541 0
0.599557301219 -0.115350672502 0
0.599601386323 -0.117481704229 0
0.600518618075 -0.115327111209 0
0.60090654538 -0.113250261714 0
0.599178671432 -0.113256231937 0
0.598994894442 -0.117911716131 0
0.60106557972 -0.117890778811 0
0.599792725378 -0.110969406992 0
0.600101650054 -0.110422930016 0
0.600486032164 -0.112527108049 0
0.599592734368 -0.112489005341 0
0.598568953748 -0.117353199438 0
0.599241332565 -0.115954572498 0
0.600815770323 -0.114318509295 0
0.599128355288 -0.118530316695 0
0.60146637009 -0.117345293122 0
0.601533843441 -0.117152949232 0
0.600351961204 -0.114660870312 0
0.599236476304 -0.114448349764 0
0.598282065561 -0.118345623632 0
0.601757437245 -0.118323458272 0
0.600306598142 -0.112147420072 0
0.60023152725 -0.112935189309 0
0.599683228331 -0.114829925762 0
0.600668937734 -0.119462274936 0
0.6000394108 -0.110134063162 0
0.601457653576 -0.118754529989 0
0.598574109237 -0.118782831846 0
0.599955673085 -0.114131163658 0
0.600100424103 -0.114169413047 0
0.5993005486 -0.119435859501 0
0.598661151575 -0.117414336742 0
0.598692539991 -0.116386571621 0
0.598607168874 -0.118096586176 0
0.598924888621 -0.118927383152 0
0.598749831399 -0.116071648859 0
0.601373026782 -0.116423589299 0
0.601145773523 -0.118530995458 0
0.601081869579 -0.118936846222 0
0.601447650722 -0.117978801851 0
0.599712068727 -0.111962948544 0
0.598875157659 -0.118509799467 0
0.599706368903 -0.111781766889 0
0.599928198573 -0.119199488814 0
0.599928216481 -0.116165358413 0
0.60075247793 -0.114055757977 0
0.599961496685 -0.116527767637 0
0.600345588644 -0.111695220676 0
0.600111167394 -0.116515111724 0
0.601695128088 -0.118280748392 0
0.600649790807 -0.108735480458 0
0.598848503982 -0.117692595499 0
0.601209669542 -0.117674113142 0
0.599580328782 -0.117188479986 0
0.600487790221 -0.117172367859 0
0.59900350976 -0.116480875945 0
0.598498947243 -0.117178196479 0
0.600218620209 -0.109099996503 0
0.599571675212 -0.1167989597 0
0.599052168065 -0.117317223025 0
0.601009645473 -0.117300289326 0
0.598340132778 -0.118278694406 0
0.601639671938 -0.117723547167 0
0.600700510253 -0.112994374762 0
0.598854145689 -0.11810545729 0
0.601204014885 -0.118082532172 0
0.600810143689 -0.118720694942 0
0.598405602583 -0.117727179697 0
0.598605275678 -0.118304801235 0
0.601448010996 -0.118279270508 0
0.601227150503 -0.110892169127 0
0.600149116643 -0.111096994441 0
0.601388057037 -0.118716643161 0
0.598629105424 -0.118725914521 0
0.598947554225 -0.115571605469 0
0.600362139533 -0.109758709537 0
0.60004715605 -0.112250036811 0
0.59994285262 -0.109146617987 0
0.601410526467 -0.116180458557 0
0.601120293153 -0.11558830821 0
0.59914226348 -0.11399531872 0
0.599046828303 -0.10938953396 0
0.598896611002 -0.110915836893 0
0.601448649722 -0.117153800582 0
0.598591695362 -0.117929059885 0
0.601461447401 -0.117908969187 0
0.60068309415 -0.117408930532 0
0.598637844416 -0.116201224903 0
0.599113678032 -0.114163701349 0
0.600382194062 -0.11368005529 0
0.599278424851 -0.117404806519 0
0.599938615004 -0.118118393254 0
0.600406238157 -0.115424318653 0
0.599672211993 -0.115417434021 0
0.599163757839 -0.115986723206 0
0.600866195486 -0.115978265293 0
0.598351295934 -0.118536199654 0
0.601678445395 -0.118517790886 0
0.599319785352 -0.113200239804 0
0.600965033752 -0.114256240358 0
0.599620154048 -0.113813247725 0
0.600883431465 -0.1179858158 0
0.599361759179 -0.108778834404 0
0.600823407781 -0.115645880304 0
0.601640908202 -0.118306129796 0
0.59840684804 -0.118331370167 0
0.599436718294 -0.116510372954 0
0.599685503381 -0.109585836131 0
0.600630871768 -0.116497976241 0
0.599533984925 -0.112457142045 0
0.600372901333 -0.118359010885 0
0.600419652729 -0.119506446315 0
0.601314946322 -0.116073234199 0
0.598852143772 -0.115376377883 0
0.601642389199 -0.118094171562 0
0.598404854638 -0.118114686001 0
0.601546684237 -0.118395534325 0
0.598474906697 -0.11839230856 0
0.599950667796 -0.110527083298 0
0.601232885504 -0.116619390936 0
0.601178792778 -0.109479973619 0
0.600114074874 -0.108238940185 0
0.600061927722 -0.110343212404 0
0.598505379983 -0.117172839246 0
0.598836747991 -0.116699458958 0
0.599286338987 -0.117670277951 0
0.600778233678 -0.117651140684 0
0.600235067224 -0.11385719293 0
0.600503778092 -0.112309698092 0
0.599780694637 -0.108363361938 0
0.601120304877 -0.119071798224 0
0.598669570666 -0.117595225867 0
0.601378705239 -0.117579505029 0
0.601140352753 -0.115126996283 0
0.598805130014 -0.119005849348 0
0.599610113775 -0.11953838054 0
0.601526459369 -0.116887646232 0
0.599057918277 -0.118067427313 0
0.599805356991 -0.111835665337 0
0.601012266716 -0.115042757551 0
0.601200455498 -0.11520846106 0
0.600687288318 -0.113171815341 0
0.600985717739 -0.114150880466 0
0.599106985986 -0.115036380522 0
0.598483791728 -0.117999899102 0
0.600608892463 -0.110612610582 0
0.600289128674 -0.111643725571 0
0.598494235436 -0.117913485788 0
0.601555557238 -0.11790044353 0
0.599162448217 -0.117837042385 0
0.600900381289 -0.11781661707 0
0.600223769758 -0.111210876227 0
0.601289244541 -0.117121962946 0
0.601214452086 -0.117243455793 0
0.60027652987 -0.111846550506 0
0.598848053631 -0.115236722119 0
0.599646654771 -0.113146693004 0
0.598676254137 -0.117209848342 0
0.598583974338 -0.118197958941 0
0.60146878332 -0.118174485981 0
0.60012977959 -0.119288017933 0
0.599792300518 -0.114733109961 0
0.59981695365 -0.115619076904 0
0.598522369002 -0.116888517021 0
0.600458748417 -0.113137084918 0
0.599449784176 -0.11061078125 0
0.598622502173 -0.116978369493 0
0.600789585109 -0.114841181971 0
0.60042549308 -0.119600249911 0
0.601308010475 -0.112627474733 0
0.600259365113 -0.115613287586 0
0.599578974041 -0.118280128487 0
0.60001965755 -0.110340716895 0
0.600320499274 -0.114780893693 0
0.599898584746 -0.112125568075 0
0.601014020021 -0.113940124125 0
0.598751488634 -0.112649753365 0
0.599300296943 -0.114855904097 0
0.599070800563 -0.11394560133 0
0.60003991872 -0.109889644441 0
0.600184175476 -0.112092755993 0
0.600133477037 -0.108801251081 0
0.601731878358 -0.118320735186 0
0.59831111652 -0.118344743087 0
0.601494857988 -0.111354005692 0
0.601426146612 -0.110316477994 0
0.599859587952 -0.119456958488 0
0.598675835819 -0.11031237211 0
0.598605179694 -0.111388625379 0
0.600747127186 -0.115113982893 0
0.600449916652 -0.115870130834 0
0.599816245574 -0.11131988444 0
0.599334737712 -0.115109050095 0
0.599627949054 -0.115860822312 0
0.60158533574 -0.117852205219 0
0.600734614416 -0.118500971838 0
0.599901837188 -0.113697252886 0
0.600576549628 -0.108366249056 0
0.599379307926 -0.10972937505 0
0.600948011058 -0.108780685831 0
0.600148262529 -0.110719141251 0
0.601534749864 -0.11754012589 0
0.601637858773 -0.11820570343 0
0.598409882248 -0.118228507264 0
0.59880787936 -0.117217767459 0
0.601698259385 -0.118083368206 0
0.598345460906 -0.118102039919 0
0.600200980257 -0.117051826275 0
0.59926757795 -0.113589950798 0
0.600264612102 -0.119452546836 0
0.599802215958 -0.108837180351 0
0.600543551922 -0.114535093504 0
0.599864153184 -0.116970054788 0
0.600206957426 -0.116955018512 0
0.598458590889 -0.117760224931 0
0.600667929727 -0.113435768293 0
0.599622753308 -0.112545221714 0
0.599685735698 -0.11263922332 0
0.601268841922 -0.11813381543 0
0.599870953127 -0.111240246827 0
0.59937700398 -0.11340277963 0
0.600736836602 -0.109828338131 0
0.600054315592 -0.110968937175 0
0.598405992375 -0.117585558584 0
0.599465532858 -0.115229969194 0
0.599907054936 -0.109693900489 0
0.5998324389 -0.115414362102 0
0.599445171273 -0.114297696857 0
0.600471480502 -0.113706214189 0
0.599703583465 -0.116433068333 0
0.600367065635 -0.116421106812 0
0.599612599241 -0.113709095636 0
0.600250403644 -0.113264563047 0
0.600248023216 -0.10944089081 0
0.600637760616 -0.112751388055 0
0.601706945843 -0.118107458218 0
0.598331370051 -0.118112572337 0
0.599617855511 -0.119634154595 0
0.600368158545 -0.112668776565 0
0.601635302508 -0.117563942549 0
0.600134287026 -0.10950113685 0
0.599068426871 -0.108977586267 0
0.598621981114 -0.118069192433 0
0.601431515636 -0.118047482285 0
0.598771152228 -0.118259466504 0
0.601285514055 -0.11823443229 0
0.599614661049 -0.109178249528 0
0.598571707584 -0.11691019897 0
0.600628594814 -0.111725574209 0
0.601523926833 -0.118241117804 0
0.60081768092 -0.113859347563 0
0.599692314332 -0.111332922671 0
0.601589850652 -0.117745115158 0
0.598549982044 -0.118360943382 0
0.601501986199 -0.118334347169 0
0.60041817793 -0.116869555965 0
0.601147758445 -0.116254834626 0
0.600127274922 -0.11461954099 0
0.598708576411 -0.117783081699 0
0.601347050535 -0.117763996839 0
0.599097295618 -0.116810672729 0
0.599939476936 -0.111421057696 0
0.600947041917 -0.11681065926 0
0.60066838711 -0.112998059851 0
0.600431326645 -0.10875574828 0
0.598654200888 -0.116198959012 0
0.599953866927 -0.114633345956 0
0.599416054806 -0.116797520051 0
0.600650602959 -0.116783312936 0
0.600882949064 -0.116894854645 0
0.599030041604 -0.115823111925 0
0.599596293274 -0.119682025215 0
0.599004110402 -0.118050114228 0
0.601056442216 -0.11802764711 0
0.600523383327 -0.109394898911 0
0.600182299038 -0.116356674439 0
0.599892381841 -0.116344782022 0
0.599720326913 -0.112415267832 0
0.599725025373 -0.111755413715 0
0.599686083338 -0.119376834255 0
0.599362954076 -0.115719080619 0
0.599421850307 -0.116194616743 0
0.601463155405 -0.116809507111 0
0.600309849906 -0.115723489615 0
0.600705420961 -0.11573847631 0
0.600360180059 -0.112354662609 0
0.601732085019 -0.118228883453 0
0.598309801798 -0.118249594462 0
0.599090546069 -0.115059560015 0
0.598945611768 -0.117516449022 0
0.601113338232 -0.117495488582 0
0.601262290105 -0.115973047341 0
0.599170746747 -0.117467285043 0
0.600885733876 -0.117444898854 0
0.598270661886 -0.118399834278 0
0.601766031344 -0.118377916765 0
0.599074577685 -0.114149188462 0
0.600492273307 -0.118759687408 0
0.601552398057 -0.11720949281 0
0.600502983956 -0.116234339978 0
0.601037323026 -0.115852219707 0
0.600233779056 -0.111289780974 0
0.599401066004 -0.113892276889 0
0.598771313198 -0.10969192886 0
0.601117449915 -0.116764672476 0
0.601655223529 -0.117778915307 0
0.598388678422 -0.117794936947 0
0.598778446896 -0.116981952258 0
0.598796384075 -0.115976612325 0
0.600601722191 -0.112664293918 0
0.599213418703 -0.115490720865 0
0.600071791526 -0.110643528871 0
0.600974461953 -0.115424056824 0
0.600642086319 -0.115111704942 0
0.599824516053 -0.117586642721 0
0.600980817782 -0.115124910683 0
0.600982544726 -0.110584703675 0
0.601206212939 -0.115174501056 0
0.60154387418 -0.117026966686 0
0.600172666501 -0.118039814949 0
0.598917922862 -0.114926128881 0
0.599798774186 -0.114271353201 0
0.59947179491 -0.118831090406 0
0.599107885026 -0.116919562815 0
0.598973160018 -0.11469756244 0
0.599674367031 -0.112144031424 0
0.599175177835 -0.114519113042 0
0.598849092622 -0.116241316735 0
0.599102819507 -0.11058449152 0
0.599134680066 -0.111468483292 0
0.598473880114 -0.118374806615 0
0.601576107935 -0.118348034297 0
0.601751568436 -0.118307972025 0
0.598285590221 -0.118328042913 0
0.60031325233 -0.108190030345 0
0.600043710342 -0.110375657227 0
0.600146223812 -0.11563563634 0
0.600313919258 -0.111683202207 0
0.601069303175 -0.117637146022 0
0.599304288571 -0.119012650041 0
0.60159179563 -0.117355844702 0
0.600376842806 -0.112008330402 0
0.600598057426 -0.114103614196 0
0.600881952006 -0.114110364324 0
0.599029144286 -0.116208165136 0