# vtk DataFile Version 2.0
Generated with Solid Solver
ASCII
DATASET UNSTRUCTURED_GRID
POINTS 999 float 
0.2 4.325 0.0
1.4 4.325 0.0
1.4 4.825 0.0
0.2 4.825 0.0
1.4 4.34523264049 0.0
1.4 4.36751203886 0.0
1.4 4.39204525371 0.0
1.4 4.4190602782 0.0
1.4 4.44880817466 0.0
1.4 4.48156541084 0.0
1.4 4.51763640748 0.0
1.4 4.5573564007 0.0
1.4 4.60109451608 0.0
1.4 4.64925723872 0.0
1.4 4.70229217343 0.0
1.4 4.76069218095 0.0
1.33333333333 4.825 0.0
1.26666666667 4.825 0.0
1.2 4.825 0.0
1.13333333333 4.825 0.0
1.06666666667 4.825 0.0
1.0 4.825 0.0
0.933333333334 4.825 0.0
0.866666666668 4.825 0.0
0.800000000001 4.825 0.0
0.733333333334 4.825 0.0
0.666666666668 4.825 0.0
0.600000000001 4.825 0.0
0.533333333334 4.825 0.0
0.466666666667 4.825 0.0
0.4 4.825 0.0
0.333333333334 4.825 0.0
0.266666666667 4.825 0.0
0.2 4.76069218095 0.0
0.2 4.70229217343 0.0
0.2 4.64925723872 0.0
0.2 4.60109451608 0.0
0.2 4.5573564007 0.0
0.2 4.51763640748 0.0
0.2 4.48156541084 0.0
0.2 4.44880817466 0.0
0.2 4.4190602782 0.0
0.2 4.39204525371 0.0
0.2 4.36751203886 0.0
0.2 4.34523264049 0.0
0.212131543907 4.30926329506 0.0
0.224675715302 4.29385348652 0.0
0.23762369102 4.27878141198 0.0
0.250966423879 4.26405760374 0.0
0.264694484585 4.24969246611 0.0
0.278798324214 4.23569599189 0.0
0.293267939266 4.22207810803 0.0
0.308093289028 4.20884826442 0.0
0.323263842145 4.19601585877 0.0
0.338769084145 4.18358978512 0.0
0.354597997314 4.17157887342 0.0
0.37073960121 4.15999145532 0.0
0.387182441982 4.14883575334 0.0
0.403915091795 4.13811952025 0.0
0.420925712897 4.12785033813 0.0
0.438202430937 4.11803537461 0.0
0.455733079095 4.10868154223 0.0
0.473505374364 4.09979539439 0.0
0.491506842655 4.09138316882 0.0
0.509724826085 4.0834507802 0.0
0.528146580414 4.07600377808 0.0
0.546759103951 4.06904741762 0.0
0.56554943677 4.06258654322 0.0
0.584504260001 4.05662573401 0.0
0.60361041518 4.0511691282 0.0
0.622854334779 4.04622060039 0.0
0.642222678753 4.04178358113 0.0
0.661701681839 4.03786122392 0.0
0.681277836375 4.03445624851 0.0
0.700937245817 4.03157107217 0.0
0.720666255912 4.02920769845 0.0
0.740450894784 4.02736780161 0.0
0.76027736978 4.02605266363 0.0
0.780131702711 4.02526321235 0.0
0.799999999998 4.025 0.0
0.819868297285 4.02526321235 0.0
0.839722630216 4.02605266363 0.0
0.859549105212 4.02736780161 0.0
0.879333744085 4.02920769845 0.0
0.89906275418 4.03157107217 0.0
0.918722163621 4.03445624851 0.0
0.938298318157 4.03786122392 0.0
0.957777321244 4.04178358113 0.0
0.977145665218 4.04622060039 0.0
0.996389584817 4.0511691282 0.0
1.01549574 4.05662573401 0.0
1.03445056323 4.06258654322 0.0
1.05324089605 4.06904741762 0.0
1.07185341958 4.07600377808 0.0
1.09027517391 4.0834507802 0.0
1.10849315734 4.09138316882 0.0
1.12649462563 4.09979539439 0.0
1.1442669209 4.10868154222 0.0
1.16179756906 4.1180353746 0.0
1.1790742871 4.12785033813 0.0
1.1960849082 4.13811952024 0.0
1.21281755802 4.14883575334 0.0
1.22926039879 4.15999145532 0.0
1.24540200269 4.17157887342 0.0
1.26123091585 4.18358978512 0.0
1.27673615785 4.19601585877 0.0
1.29190671097 4.20884826442 0.0
1.30673206073 4.22207810803 0.0
1.32120167579 4.23569599189 0.0
1.33530551541 4.24969246611 0.0
1.34903357612 4.26405760374 0.0
1.36237630898 4.27878141198 0.0
1.3753242847 4.29385348652 0.0
1.38786845609 4.30926329506 0.0
1.05632730172 4.46025283906 0.0
0.549964048968 4.4630053958 0.0
0.806135520676 4.31186690218 0.0
0.603895783049 4.26079310371 0.0
1.22984770884 4.38318704125 0.0
0.3703382852 4.38423552752 0.0
0.995322815839 4.25565031136 0.0
0.728315816804 4.1765935937 0.0
0.872128173905 4.17288724072 0.0
1.14059401893 4.27298468684 0.0
0.461553191009 4.27181671009 0.0
0.784706775856 4.56821390922 0.0
0.398287125272 4.57945970538 0.0
1.20625306554 4.58334743514 0.0
0.624100842742 4.1589824436 0.0
0.5257453845 4.18811776279 0.0
0.978502430793 4.15488737058 0.0
1.07419209812 4.18825154482 0.0
0.364313698077 4.28677035763 0.0
1.23509538257 4.28681716733 0.0
0.68124123937 4.39284548972 0.0
1.31679378691 4.35012066749 0.0
0.283206213094 4.35012066749 0.0
0.791498533126 4.11467141721 0.0
0.931481076052 4.3801344917 0.0
0.966719065571 4.62778042839 0.0
0.684451667517 4.11068036752 0.0
0.618335406951 4.62686910993 0.0
0.450982331762 4.19686171732 0.0
0.915674266355 4.10995633851 0.0
1.14900051594 4.19689012964 0.0
1.30193709687 4.4481448133 0.0
0.298574667609 4.44816296922 0.0
1.05734787542 4.34990107617 0.0
0.539273225177 4.35252599628 0.0
0.709896798149 4.27721026287 0.0
0.895708916005 4.26924194389 0.0
0.813273511364 4.43835766235 0.0
0.559289631452 4.13230879113 0.0
1.04001407307 4.13281539633 0.0
0.801161810585 4.23146244955 0.0
0.665113819616 4.52056650186 0.0
0.852577362173 4.09111846388 0.0
0.390256727869 4.2242806298 0.0
1.20974450479 4.22428104599 0.0
0.921542541183 4.52778058719 0.0
1.14030889032 4.36437344809 0.0
1.15600477272 4.46808538305 0.0
0.435243219029 4.4750581257 0.0
0.462045157798 4.36654654286 0.0
0.735806812738 4.08472269746 0.0
1.30082934537 4.29793772796 0.0
0.299170654625 4.29793772796 0.0
0.533651712118 4.26265983853 0.0
0.666130919144 4.21652131559 0.0
1.0676097303 4.26179469382 0.0
1.08054433577 4.58530946155 0.0
0.506773767255 4.56568295079 0.0
0.626745312844 4.10124420826 0.0
0.933845304214 4.2106954732 0.0
0.293717639664 4.55175000185 0.0
0.312505022079 4.66426411351 0.0
1.3058164124 4.55154930624 0.0
1.29054387065 4.66302765963 0.0
0.973467966326 4.09941619478 0.0
0.487935413164 4.15087084015 0.0
0.461549079751 4.68836834982 0.0
1.11203248746 4.15093503889 0.0
1.14453515393 4.70617370303 0.0
0.840217564202 4.68891146633 0.0
0.585347033288 4.20539048534 0.0
0.619177396637 4.34227576306 0.0
0.331644410315 4.24962190462 0.0
1.26835558968 4.24962190462 0.0
1.01536156978 4.19987473052 0.0
0.809331033562 4.07065709122 0.0
0.982321540791 4.33437358971 0.0
0.725600576914 4.66999651799 0.0
0.812291456186 4.16642942492 0.0
0.335887692543 4.33918235669 0.0
1.26344844681 4.34017131907 0.0
1.23449730504 4.49457441524 0.0
1.34334172095 4.40539551957 0.0
0.256658279045 4.40539551957 0.0
0.741646926828 4.34287908527 0.0
0.674799084703 4.16673768522 0.0
1.18647435526 4.30955189749 0.0
0.360563250283 4.49596479569 0.0
0.873716483853 4.33845499203 0.0
0.418704489949 4.31146264283 0.0
0.492670911224 4.22931614809 0.0
0.403480880356 4.19046776931 0.0
1.19651541215 4.1904686246 0.0
0.728649253738 4.46214546491 0.0
1.00883674467 4.40174664879 0.0
1.11035034557 4.23161841276 0.0
0.261968539765 4.3130079512 0.0
1.33803146023 4.3130079512 0.0
0.74649980488 4.1318354354 0.0
0.927597725248 4.1577597079 0.0
0.892956618256 4.07619338913 0.0
0.659794281787 4.07951387326 0.0
0.587663534405 4.09486537006 0.0
0.942353209926 4.07935300973 0.0
1.01493747319 4.09476013719 0.0
0.613130017774 4.41369803882 0.0
0.449373501074 4.15377191978 0.0
0.514840228377 4.12225850006 0.0
0.497057592 4.41333092106 0.0
1.15061382426 4.15379293084 0.0
1.08514419473 4.12228328152 0.0
0.745617635771 4.23098957592 0.0
0.87523452213 4.59853036549 0.0
0.855262884783 4.2258970831 0.0
1.01126200032 4.53280064162 0.0
1.09391916408 4.40632408872 0.0
1.04436265455 4.71482000827 0.0
0.314320181089 4.38773968607 0.0
1.28649331902 4.38743720145 0.0
0.771211579291 4.06316862024 0.0
0.432259099658 4.24006002157 0.0
0.698583889427 4.07144353526 0.0
1.16802128371 4.238862881 0.0
1.09587629216 4.3086676659 0.0
1.35920470355 4.35666960471 0.0
0.240795296449 4.35666960471 0.0
0.504003580654 4.30815758118 0.0
0.579942709371 4.5342075073 0.0
0.875915224914 4.12815792528 0.0
0.426503136644 4.40717733008 0.0
0.57541416445 4.30365301522 0.0
0.683877978289 4.33161848113 0.0
0.888061695889 4.44633509246 0.0
0.26012287522 4.49859249103 0.0
1.33987712478 4.49859249103 0.0
0.801393572636 4.37060096582 0.0
0.558460082533 4.72496728209 0.0
1.1741923373 4.41132830101 0.0
0.83220012886 4.12779415912 0.0
1.02815069622 4.30053276509 0.0
0.948308583502 4.2880204454 0.0
0.846588933095 4.50834596945 0.0
0.343666800815 4.43485820652 0.0
1.25632767671 4.43480360053 0.0
0.97849585731 4.47031535602 0.0
1.10170977548 4.51507265998 0.0
0.662193131828 4.26809398492 0.0
0.400503668388 4.26881657105 0.0
1.20117145985 4.26130427377 0.0
0.350957892513 4.21796558019 0.0
1.24904210749 4.21796558019 0.0
0.771964652188 4.18905379403 0.0
0.932165148285 4.72736281402 0.0
0.373672364094 4.73321357765 0.0
0.760245937722 4.28409350779 0.0
0.848718469252 4.05767763075 0.0
1.23385612561 4.7358294747 0.0
0.846421485813 4.28065918421 0.0
0.651597058631 4.13043284014 0.0
0.650489852552 4.72138045504 0.0
0.58457834847 4.16375088261 0.0
0.48701309933 4.18859927013 0.0
0.708495738406 4.58856947756 0.0
1.11203398596 4.18878062515 0.0
0.54865558244 4.10250047869 0.0
1.05126102377 4.10234629471 0.0
0.300013757486 4.26259646442 0.0
1.29998624251 4.26259646442 0.0
0.9465032388 4.12718070354 0.0
0.708587583337 4.14146095907 0.0
0.973348904468 4.19537871864 0.0
0.628721855632 4.19538356945 0.0
0.380175010018 4.34021880077 0.0
0.662092932411 4.45899041267 0.0
1.05133526787 4.22221992007 0.0
0.528087045766 4.64327882187 0.0
1.22233124543 4.33521693908 0.0
1.19001193434 4.36273586668 0.0
0.853024099244 4.39544003492 0.0
0.542800296246 4.22324366905 0.0
0.247706318737 4.45239119247 0.0
1.35229368126 4.45239119247 0.0
0.599153768578 4.12953797005 0.0
1.01616570494 4.16227683178 0.0
0.744705786938 4.40569544575 0.0
1.31929001115 4.73702550052 0.0
0.777615355331 4.15113602511 0.0
1.33132411895 4.60631378639 0.0
0.265621610877 4.60975488866 0.0
0.532023338888 4.15374454388 0.0
1.0697792195 4.15241429251 0.0
0.286371037106 4.73010312914 0.0
0.497725885905 4.50153668256 0.0
0.46053455822 4.31587947599 0.0
0.433799237968 4.54629400991 0.0
0.388624781906 4.65094200004 0.0
0.554823673752 4.40451940232 0.0
1.1421595646 4.31818301431 0.0
1.14760043966 4.61655103139 0.0
1.21258698805 4.65320200685 0.0
1.16279096046 4.53292621409 0.0
0.995762647814 4.12508772517 0.0
0.456229040627 4.61456685246 0.0
0.707289391156 4.21520271873 0.0
0.763036833302 4.74285445535 0.0
0.78386198569 4.49787013126 0.0
[...]
POINT_DATA 999
VECTORS Displacement float
0.197215233178 -0.196197342083 0
0.202702245252 -0.196233608773 0
0.2 -0.2 0
0.2 -0.2 0
0.202938434395 -0.196217264595 0
0.203165858968 -0.196195778038 0
0.203370059966 -0.196170848367 0
0.203544157057 -0.196162374323 0
0.203651667875 -0.196180037651 0
0.203721381915 -0.196234356172 0
0.203693867858 -0.196333983949 0
0.203561796267 -0.196488596727 0
0.203309562823 -0.196739658534 0
0.202885627078 -0.197111953208 0
0.202268349764 -0.197671672648 0
0.201374641395 -0.198520277504 0
0.2 -0.2 0
0.2 -0.2 0
0.2 -0.2 0
0.2 -0.2 0
0.2 -0.2 0
0.2 -0.2 0
0.2 -0.2 0
0.2 -0.2 0
0.2 -0.2 0
0.2 -0.2 0
0.2 -0.2 0
0.2 -0.2 0
0.2 -0.2 0
0.2 -0.2 0
0.2 -0.2 0
0.2 -0.2 0
0.2 -0.2 0
0.198625298657 -0.198518065959 0
0.197724147107 -0.197662392008 0
0.197071194582 -0.197094812311 0
0.196654243466 -0.196713581913 0
0.196398079643 -0.196457807172 0
0.196257626303 -0.196300641352 0
0.196223492844 -0.196200792665 0
0.196287738631 -0.196145898239 0
0.19639026616 -0.196127632985 0
0.196559649418 -0.196135516898 0
0.19675941818 -0.196159976647 0
0.196982747853 -0.196181155211 0
0.197407401141 -0.196071409451 0
0.197618879886 -0.195930465213 0
0.197847386879 -0.19576612734 0
0.198097452354 -0.195578865375 0
0.198367781891 -0.195360781693 0
0.198650491412 -0.195106783552 0
0.198949620294 -0.194819996012 0
0.199277270315 -0.194496936014 0
0.199628805275 -0.194110844146 0
0.199986384125 -0.193693805661 0
0.200365292348 -0.19322172443 0
0.200777244747 -0.192729820539 0
0.201285100045 -0.192011537209 0
0.201941405679 -0.190913907128 0
0.202429508417 -0.189818342338 0
0.202841922105 -0.188713898173 0
0.203152488436 -0.187645455081 0
0.203376991289 -0.18659772273 0
0.203533742338 -0.185600898862 0
0.203627124196 -0.184631475673 0
0.203664953644 -0.183713630544 0
0.203639204455 -0.182815113307 0
0.203559371153 -0.182000357455 0
0.203418253325 -0.181257722019 0
0.203244101329 -0.180574563764 0
0.203023659966 -0.179944626475 0
0.202776909567 -0.179379656811 0
0.202494359771 -0.178878370758 0
0.202195129697 -0.178439872174 0
0.201862911829 -0.178059462951 0
0.201515001176 -0.177749185389 0
0.201142561621 -0.177496531711 0
0.200762941813 -0.177306285337 0
0.200368385992 -0.1771784521 0
0.199926574142 -0.177048570794 0
0.199500139833 -0.177156619231 0
0.199101916494 -0.177299921996 0
0.198721890999 -0.177487103248 0
0.198356549766 -0.177738803521 0
0.198008175564 -0.1780533316 0
0.197676084355 -0.178432473517 0
0.197366838874 -0.178879704622 0
0.197095017929 -0.17937843495 0
0.196850551103 -0.17994450035 0
0.196632173855 -0.180576646453 0
0.196459865545 -0.181262214514 0
0.196326197135 -0.182014387242 0
0.196237268138 -0.182803163782 0
0.196206186159 -0.183692763986 0
0.196246793876 -0.1846220705 0
0.196341846114 -0.185595679721 0
0.19650106951 -0.186596003352 0
0.196726192632 -0.187642555487 0
0.197041433798 -0.188717144905 0
0.197445779461 -0.189805176046 0
0.19794090221 -0.190914153455 0
0.198597162756 -0.192006957699 0
0.199088680098 -0.192704111165 0
0.199511337504 -0.193220238043 0
0.199896486787 -0.193701227481 0
0.200258891439 -0.194123720459 0
0.200614882241 -0.194514136105 0
0.200946365679 -0.194840431139 0
0.201248994979 -0.195130066538 0
0.201535016843 -0.195386580647 0
0.201808461884 -0.1956068938 0
0.202061480639 -0.195796271098 0
0.202292860388 -0.19596267671 0
0.202507202657 -0.196105643812 0
0.202376391582 -0.192481147246 0
0.197618266225 -0.192465344112 0
0.200001364466 -0.185910534228 0
0.198958481614 -0.186216283561 0
0.203135518314 -0.193991781294 0
0.196790173593 -0.193988807966 0
0.200887617449 -0.186046837857 0
0.20005365763 -0.181835338321 0
0.199809742792 -0.181726152675 0
0.201816233249 -0.190318052557 0
0.198111559616 -0.190232994597 0
0.199845630188 -0.193774969329 0
0.19713798442 -0.196296878626 0
0.202814297601 -0.196394596515 0
0.200514687348 -0.182858527241 0
0.199961276844 -0.18632787924 0
0.199286502737 -0.18280548835 0
0.199934737841 -0.186323612155 0
0.197717025613 -0.193269424899 0
0.202191830773 -0.193259917399 0
0.198818119328 -0.189051171119 0
0.202989098737 -0.195208735058 0
0.196933512334 -0.195186730911 0
0.200009547261 -0.179640921662 0
0.201201746728 -0.188786555515 0
0.201226913661 -0.195761469 0
0.20095583845 -0.180401123315 0
0.198632059324 -0.195807183939 0
0.199596341448 -0.189323403601 0
0.198914062881 -0.180377544376 0
0.200293127661 -0.189320135049 0
0.203537544646 -0.195561188466 0
0.196404376461 -0.195538398383 0
0.202106817256 -0.189858075537 0
0.197773796571 -0.189989718977 0
0.199417395082 -0.185179163634 0
0.200477038581 -0.184979614846 0
0.200103965989 -0.189950278431 0
0.201412352349 -0.183855063932 0
0.198487760641 -0.183838822638 0
0.199952747509 -0.1832873814 0
0.198677172856 -0.192844805463 0
0.199353382295 -0.179141434015 0
0.198852871015 -0.192082021949 0
0.201039871753 -0.192082153431 0
0.201140542967 -0.19296130483 0
0.202696833515 -0.1919266497 0
0.203011429261 -0.194023479798 0
0.196883104435 -0.194253510752 0
0.197228150395 -0.191909102727 0
0.20070525728 -0.179060670028 0
0.202356548966 -0.194788117924 0
0.197556075351 -0.194768954347 0
0.198569855546 -0.187923490689 0
0.199683353943 -0.183800142145 0
0.201326709205 -0.187931017611 0
0.202170500572 -0.195491742438 0
0.19761255941 -0.195187418904 0
0.201677910807 -0.181223767746 0
0.200152077136 -0.183620059235 0
0.196587113822 -0.196482871518 0
0.197620156544 -0.19779607785 0
0.20337410229 -0.196498236869 0
0.202386901085 -0.197790614429 0
0.198165976218 -0.181183117711 0
0.201104366164 -0.186885367285 0
0.198336135089 -0.197771741197 0
0.19878271466 -0.186882338061 0
0.201489990094 -0.198106963787 0
0.20023085374 -0.196952116337 0
0.19967684042 -0.185061205164 0
0.198430433046 -0.188295937951 0
0.198360596665 -0.19394610136 0
0.201541549897 -0.193957970521 0
0.200116830004 -0.184923532759 0
0.199807370352 -0.178354707216 0
0.201453935482 -0.188095022843 0
0.199503843724 -0.196529338905 0
0.199911663984 -0.181230131744 0
0.197064427331 -0.194247610655 0
0.202864007614 -0.194254724921 0
0.203332007967 -0.195372077369 0
0.203434433947 -0.195721509931 0
0.196498068004 -0.195696067959 0
0.199456532873 -0.187062488365 0
0.200258938746 -0.18216467497 0
0.202422580276 -0.192187876201 0
0.196593288255 -0.195424839301 0
0.200582390313 -0.187009661675 0
0.197483656091 -0.192075889096 0
0.198944703624 -0.188383809452 0
0.199716621351 -0.191329187755 0
0.200166699497 -0.191323827795 0
0.199249563265 -0.190832201941 0
0.201936222154 -0.19035555888 0
0.201006917986 -0.188532834902 0
0.197355056399 -0.195418583304 0
0.202560242745 -0.195444184319 0
0.20027675501 -0.180337400482 0
0.19950869746 -0.181930814053 0
0.198713390255 -0.179130284045 0
0.20173764689 -0.179964414782 0
0.202255275233 -0.182059912795 0
0.19811224252 -0.180002370558 0
0.197592650191 -0.182137919672 0
0.198163081891 -0.190390803379 0
0.201063968923 -0.188663375435 0
0.202031480347 -0.185196479458 0
0.197262810723 -0.192150018316 0
0.198818996489 -0.18865982957 0
0.197850474499 -0.185189706656 0
0.199786623827 -0.183433041256 0
0.200616611359 -0.194691521774 0
0.200094197547 -0.183274304549 0
0.201890190638 -0.19374247218 0
0.202590504371 -0.191845207131 0
0.201094919785 -0.197963064086 0
0.196663203545 -0.194925691425 0
0.203265832589 -0.194952458406 0
0.200356737576 -0.178215621615 0
0.198557057361 -0.190709406691 0
0.201342306942 -0.179119658507 0
0.201316223604 -0.190701148995 0
0.202034621003 -0.189774033593 0
0.203066628156 -0.195772459021 0
0.196856866602 -0.195743610586 0
0.197881506051 -0.189768762741 0
0.198002759044 -0.193854239134 0
0.199434522304 -0.180408377817 0
0.196890101918 -0.19328701927 0
0.198364569369 -0.187994397592 0
0.199003552611 -0.187148895859 0
0.200861006493 -0.190435240924 0
0.196323389522 -0.196145850786 0
0.203623228081 -0.196169816354 0
0.199974790126 -0.187807931885 0
0.19898804295 -0.198147627716 0
0.203052176917 -0.19337267857 0
0.199724383961 -0.180091438589 0
0.201542825431 -0.187981866251 0
0.200909804816 -0.186202593604 0
0.200440113125 -0.192109990167 0
0.196534648173 -0.194918088055 0
0.203403400956 -0.194930250668 0
0.201718403049 -0.191835554783 0
0.20259650375 -0.194234710625 0
0.19920265556 -0.185442539324 0
0.198010615253 -0.192099252941 0
0.201767705737 -0.19208491454 0
0.199036415504 -0.193357008664 0
0.200857602459 -0.193361902697 0
0.199956536666 -0.181975930065 0
0.200574056814 -0.197974303203 0
0.19865835577 -0.198713406497 0
0.199705629062 -0.185082858334 0
0.199175411512 -0.178187993571 0
0.201303115702 -0.198763713651 0
0.200234286606 -0.184998001141 0
0.200896867344 -0.181501641137 0
0.199308906939 -0.197876051362 0
0.200513373296 -0.18394016901 0
0.199896218582 -0.187722104756 0
0.199201837062 -0.194478860135 0
0.199995905144 -0.187681924434 0
0.202437419691 -0.183493369594 0
0.197434105203 -0.183479818051 0
0.198126645012 -0.194694443176 0
0.20177889944 -0.194713330863 0
0.198939453405 -0.181379567905 0
0.200418950465 -0.180973629988 0
0.199996311245 -0.183851388703 0
0.199899625199 -0.183812538055 0
0.197121330281 -0.193340859997 0
0.198596372852 -0.19115545779 0
0.200618990184 -0.186475995703 0
0.198210260241 -0.19662413082 0
0.202758660805 -0.193353100467 0
0.202892534918 -0.192966633784 0
0.200480892963 -0.188707887138 0
0.19924260998 -0.186677435735 0
0.196311199622 -0.195950447624 0
0.203629049307 -0.195976235452 0
0.201247721914 -0.182643368427 0
0.199339035852 -0.183912353475 0
0.199418529497 -0.189036593042 0
0.201436362035 -0.198749172676 0
0.200033249649 -0.180772677359 0
0.203086001027 -0.197069743002 0
0.196900420039 -0.197088035942 0
0.20089622819 -0.185278489971 0
0.198943667645 -0.185304386054 0
0.198471859402 -0.198663322463 0
0.197309408985 -0.19396186184 0
0.197591921775 -0.191040931857 0
0.197102956318 -0.19547944284 0
0.197712377616 -0.197448307357 0
0.197695459499 -0.190986215891 0
0.202357150485 -0.191152651667 0
0.20232077643 -0.196564229404 0
0.202245842284 -0.197491070036 0
0.202895117519 -0.195220949756 0
0.198562200836 -0.182388651285 0
0.197654500712 -0.196500982811 0
0.199779893808 -0.18324147971 0
0.199846142968 -0.198228350286 0
0.199813446086 -0.191758555868 0
0.200991597233 -0.187299031377 0
0.200715642332 -0.190250797276 0
0.200079640492 -0.183088921022 0
0.199166302026 -0.190246974752 0
0.20349997191 -0.195863120246 0
0.200947884021 -0.178421293049 0
0.197758991329 -0.194115577059 0
0.202150870671 -0.194129100195 0
0.199627628308 -0.192598651785 0
0.200257363182 -0.192592783538 0
0.198109707416 -0.192133199481 0
0.19699057055 -0.193019125318 0
0.200300160089 -0.179113945621 0
0.199158363424 -0.193029957517 0
0.198281870018 -0.193051032847 0
0.201620519195 -0.19305360434 0
0.196457044286 -0.195801141682 0
0.203261298842 -0.194490104798 0
0.200581583998 -0.185004616947 0
0.19776616241 -0.195231328237 0
0.202143744325 -0.195255375453 0
0.201614990065 -0.197064101103 0
0.196692628051 -0.194470168245 0
0.197128439582 -0.195784901657 0
0.202790353456 -0.195814896583 0
0.202277119918 -0.180762095075 0
0.199959402857 -0.182300966759 0
0.202900275276 -0.19695158257 0
0.197056973555 -0.196937906399 0
0.198369121199 -0.189008175131 0
0.200733137593 -0.179932825385 0
0.199966105975 -0.184299454196 0
0.199717812449 -0.179204639946 0
0.20242088563 -0.190867905009 0
0.201554861779 -0.189063246579 0
0.198768325338 -0.186886665538 0
0.198213492993 -0.179098861265 0
0.197640617121 -0.180800333074 0
0.202751704842 -0.193321536695 0
0.197111039048 -0.19479155633 0
0.202808912096 -0.194808849856 0
0.201259416001 -0.194267266429 0
0.197490227286 -0.1908932126 0
0.198903700259 -0.186625083382 0
0.199580736115 -0.184976150509 0
0.198576639998 -0.194236915528 0
0.199852492276 -0.195877925245 0
0.201936978078 -0.186954334725 0
0.197946584211 -0.186951117711 0
0.198788487009 -0.189543782352 0
0.201022662355 -0.189501071635 0
0.196429141083 -0.196467920017 0
0.203528029827 -0.196489806566 0
0.199301786731 -0.185176560373 0
0.201040356247 -0.186779207684 0
0.200148312068 -0.18524640944 0
0.201703553822 -0.195448899008 0
0.198794451138 -0.178441483157 0
0.201352293526 -0.190501431289 0
0.203300081829 -0.195908205425 0
0.19662821494 -0.19587812114 0
0.199318394111 -0.19059035242 0
0.199119149057 -0.179679534421 0
0.200569996264 -0.190586334648 0
0.199510637417 -0.184322281596 0
0.200699215311 -0.196372754837 0
0.200854056015 -0.19886019899 0
0.202270127326 -0.190961191394 0
0.198023112957 -0.189515903989 0
0.203290923692 -0.195336943613 0
0.196638515324 -0.195315843694 0
0.20319050725 -0.196165571179 0
0.196754213145 -0.196116749262 0
0.199361166623 -0.181043881203 0
0.202060420697 -0.191395011315 0
0.201858939969 -0.179156263675 0
0.200032456136 -0.177761273158 0
0.199790814815 -0.181057287017 0
0.197008076948 -0.193241407107 0
0.197854987745 -0.191548566392 0
0.198874603581 -0.194004837127 0
0.201021968639 -0.194016683092 0
0.200257973185 -0.187191096363 0
0.200320674805 -0.184053793124 0
0.19950706314 -0.177946646829 0
0.202399801647 -0.197842758395 0
0.197327762792 -0.193900969385 0
0.202570953408 -0.193913696902 0
0.201751944965 -0.189052234864 0
0.197390018963 -0.197638026811 0
0.199186881881 -0.198930438406 0
0.202843050903 -0.192521807627 0
0.198091359705 -0.195592058542 0
0.200232327543 -0.182812286098 0
0.20155308852 -0.189075421189 0
0.20172271247 -0.188674924159 0
0.200386375536 -0.18490741721 0
0.201232364673 -0.187032940166 0
0.198478557479 -0.189136227783 0
0.196833841742 -0.195194458525 0
0.201363911314 -0.180764333509 0
0.201110887555 -0.182105851073 0
0.196873657593 -0.194774585208 0
0.203049659098 -0.194806429448 0
0.198556916315 -0.194477406415 0
0.20134340186 -0.194494296984 0
0.199800323728 -0.182199638805 0
0.202294597029 -0.192683881431 0
0.202292719771 -0.193693009932 0
0.199674202603 -0.182837995936 0
0.198161198911 -0.188735654641 0
0.199478171991 -0.185797464024 0
0.1973931027 -0.192917061779 0
0.197077859342 -0.195503493834 0
0.202841786564 -0.195529666334 0
0.200243861989 -0.198420662926 0
0.200535318379 -0.186342006273 0
0.200493403121 -0.187957996925 0
0.197096339976 -0.192497531214 0
0.200484509457 -0.185752293037 0
0.198476354741 -0.180740552624 0
0.197288049257 -0.192931505818 0
0.200584255971 -0.187194556212 0
0.200883475783 -0.199066728432 0
0.202827398667 -0.18261455278 0
0.199403492448 -0.187963059983 0
0.199150122458 -0.196188392811 0
0.200108520026 -0.181050160143 0
0.199443565595 -0.186461855378 0
0.199824050311 -0.184063018258 0
0.202780764082 -0.18422404451 0
0.197007181111 -0.182613216813 0
0.199359737679 -0.187186317796 0
0.197095812924 -0.184210869004 0
0.199925465352 -0.180398661259 0
0.200091164602 -0.183999974113 0
0.200100448153 -0.178671764321 0
0.203548636651 -0.195963319577 0
0.196386919192 -0.195934673627 0
0.202723898553 -0.181155888821 0
0.202377453228 -0.180031050224 0
0.199713207494 -0.198788566749 0
0.197516028458 -0.18002781217 0
0.197159350247 -0.181192886334 0
0.202603032292 -0.186074360893 0
0.202107890282 -0.187914228169 0
0.200019769977 -0.18239825945 0
0.197277888296 -0.186070046929 0
0.197774551966 -0.187912372421 0
0.203175530476 -0.194853898979 0
0.20143770808 -0.196606018631 0
0.199782930964 -0.18689857252 0
0.200765276487 -0.177911264966 0
0.198595072334 -0.1796772101 0
0.201380945292 -0.178366470929 0
0.200619698899 -0.181239165689 0
0.202956498851 -0.193878229662 0
0.203286673512 -0.195634727439 0
0.196641667548 -0.195609062584 0
0.197641369219 -0.193620163815 0
0.203439028999 -0.195324617909 0
0.196495435913 -0.195305679973 0
0.200329103065 -0.193599940106 0
0.199269276686 -0.185602941123 0
0.200520227575 -0.198767295168 0
0.199484703423 -0.178687676273 0
0.20076664805 -0.188392800198 0
0.200370561389 -0.191871977354 0
0.199504460085 -0.191863552394 0
0.196805631064 -0.194402892365 0
0.200761389223 -0.186131909156 0
0.198280834984 -0.18295591704 0
0.200162502758 -0.183788039475 0
0.202530786125 -0.195641195289 0
0.199906542161 -0.18249832407 0
0.199139015967 -0.186042554536 0
0.201349207792 -0.17978624896 0
0.199948437335 -0.18213743814 0
0.196714056082 -0.194067425149 0
0.199040427907 -0.189765179769 0
0.199531618054 -0.179989387787 0
0.199650243453 -0.190224182914 0
0.199090025992 -0.187891896645 0
0.201840292613 -0.184288248473 0
0.200014490842 -0.190155111868 0
0.199869890881 -0.190150947127 0
0.198043129042 -0.184281111503 0
0.200243172025 -0.18607984944 0
0.200434187009 -0.179594263137 0
0.201922386734 -0.183081908156 0
0.203486534364 -0.195415912765 0
0.196460280949 -0.195374119031 0
0.199191708626 -0.199141208191 0
0.199672070995 -0.183786647994 0
0.20321543768 -0.194053563232 0
0.200191802794 -0.179752850342 0
0.198341696966 -0.17858515225 0
0.197178741746 -0.195156717726 0
0.202739005109 -0.195178998127 0
0.197553126418 -0.195651607912 0
0.202359472394 -0.195680250177 0
0.19909819298 -0.179099918867 0
0.197207920315 -0.192318494811 0
0.201664020768 -0.181973709555 0
0.203111092879 -0.195801396056 0
0.200632849537 -0.185909135426 0
0.198678616614 -0.181692866817 0
0.203120021519 -0.19441893431 0
0.196986783856 -0.195937876995 0
0.202934382278 -0.195969967445 0
0.200726420881 -0.193189598528 0
0.202013994131 -0.191569546379 0
0.201279339396 -0.185815181858 0
0.197407053381 -0.194383477798 0
0.202507440577 -0.194398113412 0
0.198444569244 -0.191641900735 0
0.199897867965 -0.18286584733 0
0.201411194157 -0.19166744641 0
0.200627705556 -0.185196162456 0
0.200611384003 -0.178528885484 0
0.197500317016 -0.191093687363 0
0.198614315052 -0.185839320299 0
0.199221660353 -0.191441671756 0
0.200667005142 -0.191437811612 0
0.201600288263 -0.193103478732 0
0.198509821233 -0.189379229189 0
0.199121487554 -0.199246087469 0
0.198151610441 -0.195071589468 0
0.20175364625 -0.195094306403 0
0.200910632706 -0.179368540932 0
0.201402737505 -0.189518210359 0
0.198477356297 -0.189512788407 0
0.199635691718 -0.184490164524 0
0.199982341356 -0.182927826951 0
0.199357651184 -0.198591197939 0
0.199340078446 -0.188710641936 0
0.198905385728 -0.191729298689 0
0.202654325987 -0.192101598612 0
0.200471925075 -0.1908368487 0
0.200557213689 -0.18876476349 0
0.200270180109 -0.184367245563 0
0.203545228335 -0.19571401663 0
0.196392245004 -0.195691381929 0
0.198814878433 -0.187871390426 0
0.198008258966 -0.193619221484 0
0.201895091341 -0.193617854857 0
0.201988398036 -0.190051229663 0
0.198574101597 -0.193445857071 0
0.201307282539 -0.193437744938 0
0.196271803744 -0.196103294794 0
0.203672640314 -0.196130201213 0
0.198696922933 -0.186976275773 0
0.200955211002 -0.197218618917 0
0.202974929681 -0.19332635538 0
0.200844352726 -0.191846354255 0
0.201411746891 -0.189460204657 0
0.199981402257 -0.182527447566 0
0.199648813796 -0.18565580569 0
0.197786245427 -0.179344119241 0
0.202032155762 -0.192705847841 0
0.203293410407 -0.194546848277 0
0.196637565725 -0.194537727148 0
0.197667203712 -0.192287678127 0
0.197924129952 -0.190040763179 0
0.200311392725 -0.184302064644 0
0.198592012563 -0.190174486701 0
0.199614244348 -0.181346175974 0
0.201569500804 -0.189927811547 0
0.200981761392 -0.189494360812 0
0.19962930248 -0.19473159225 0
0.201116269375 -0.188005762752 0
0.201880408123 -0.180533502802 0
0.201829070205 -0.188962313694 0
0.202896118409 -0.192733222715 0
0.200301705691 -0.195704753377 0
0.198243646313 -0.188544857867 0
0.199619481303 -0.187970148336 0
0.198924719147 -0.197362858569 0
0.198270968437 -0.193134603722 0
0.198530615011 -0.187654423575 0
0.199649182106 -0.183937860235 0
0.198669728726 -0.188114222886 0
0.197846328916 -0.191499873841 0
0.197994087483 -0.18052648406 0
0.197815300143 -0.181515531959 0
0.196793963143 -0.195981622773 0
0.20313064633 -0.196014168926 0
0.203623162808 -0.195932146269 0
0.196320722816 -0.195911826009 0
0.200338902355 -0.177687564184 0
0.200244218263 -0.181014680159 0
0.201315582553 -0.187655216776 0
0.199833924271 -0.182777036626 0
0.202048468118 -0.194623311325 0
0.198558793699 -0.197720511576 0
0.203070860149 -0.193508806694 0
0.200204466955 -0.183694702959 0
0.200061991819 -0.185807531657 0
0.201152971953 -0.187237806611 0
0.198413344027 -0.190203451296 0
0.199119571366 -0.181108194339 0