# vtk DataFile Version 2.0
Generated with Solid Solver
ASCII
DATASET UNSTRUCTURED_GRID
POINTS 999 float 
0.2 4.325 0.0
1.4 4.325 0.0
1.4 4.825 0.0
0.2 4.825 0.0
1.4 4.34523264049 0.0
1.4 4.36751203886 0.0
1.4 4.39204525371 0.0
1.4 4.4190602782 0.0
1.4 4.44880817466 0.0
1.4 4.48156541084 0.0
1.4 4.51763640748 0.0
1.4 4.5573564007 0.0
1.4 4.60109451608 0.0
1.4 4.64925723872 0.0
1.4 4.70229217343 0.0
1.4 4.76069218095 0.0
1.33333333333 4.825 0.0
1.26666666667 4.825 0.0
1.2 4.825 0.0
1.13333333333 4.825 0.0
1.06666666667 4.825 0.0
1.0 4.825 0.0
0.933333333334 4.825 0.0
0.866666666668 4.825 0.0
0.800000000001 4.825 0.0
0.733333333334 4.825 0.0
0.666666666668 4.825 0.0
0.600000000001 4.825 0.0
0.533333333334 4.825 0.0
0.466666666667 4.825 0.0
0.4 4.825 0.0
0.333333333334 4.825 0.0
0.266666666667 4.825 0.0
0.2 4.76069218095 0.0
0.2 4.70229217343 0.0
0.2 4.64925723872 0.0
0.2 4.60109451608 0.0
0.2 4.5573564007 0.0
0.2 4.51763640748 0.0
0.2 4.48156541084 0.0
0.2 4.44880817466 0.0
0.2 4.4190602782 0.0
0.2 4.39204525371 0.0
0.2 4.36751203886 0.0
0.2 4.34523264049 0.0
0.212131543907 4.30926329506 0.0
0.224675715302 4.29385348652 0.0
0.23762369102 4.27878141198 0.0
0.250966423879 4.26405760374 0.0
0.264694484585 4.24969246611 0.0
0.278798324214 4.23569599189 0.0
0.293267939266 4.22207810803 0.0
0.308093289028 4.20884826442 0.0
0.323263842145 4.19601585877 0.0
0.338769084145 4.18358978512 0.0
0.354597997314 4.17157887342 0.0
0.37073960121 4.15999145532 0.0
0.387182441982 4.14883575334 0.0
0.403915091795 4.13811952025 0.0
0.420925712897 4.12785033813 0.0
0.438202430937 4.11803537461 0.0
0.455733079095 4.10868154223 0.0
0.473505374364 4.09979539439 0.0
0.491506842655 4.09138316882 0.0
0.509724826085 4.0834507802 0.0
0.528146580414 4.07600377808 0.0
0.546759103951 4.06904741762 0.0
0.56554943677 4.06258654322 0.0
0.584504260001 4.05662573401 0.0
0.60361041518 4.0511691282 0.0
0.622854334779 4.04622060039 0.0
0.642222678753 4.04178358113 0.0
0.661701681839 4.03786122392 0.0
0.681277836375 4.03445624851 0.0
0.700937245817 4.03157107217 0.0
0.720666255912 4.02920769845 0.0
0.740450894784 4.02736780161 0.0
0.76027736978 4.02605266363 0.0
0.780131702711 4.02526321235 0.0
0.799999999998 4.025 0.0
0.819868297285 4.02526321235 0.0
0.839722630216 4.02605266363 0.0
0.859549105212 4.02736780161 0.0
0.879333744085 4.02920769845 0.0
0.89906275418 4.03157107217 0.0
0.918722163621 4.03445624851 0.0
0.938298318157 4.03786122392 0.0
0.957777321244 4.04178358113 0.0
0.977145665218 4.04622060039 0.0
0.996389584817 4.0511691282 0.0
1.01549574 4.05662573401 0.0
1.03445056323 4.06258654322 0.0
1.05324089605 4.06904741762 0.0
1.07185341958 4.07600377808 0.0
1.09027517391 4.0834507802 0.0
1.10849315734 4.09138316882 0.0
1.12649462563 4.09979539439 0.0
1.1442669209 4.10868154222 0.0
1.16179756906 4.1180353746 0.0
1.1790742871 4.12785033813 0.0
1.1960849082 4.13811952024 0.0
1.21281755802 4.14883575334 0.0
1.22926039879 4.15999145532 0.0
1.24540200269 4.17157887342 0.0
1.26123091585 4.18358978512 0.0
1.27673615785 4.19601585877 0.0
1.29190671097 4.20884826442 0.0
1.30673206073 4.22207810803 0.0
1.32120167579 4.23569599189 0.0
1.33530551541 4.24969246611 0.0
1.34903357612 4.26405760374 0.0
1.36237630898 4.27878141198 0.0
1.3753242847 4.29385348652 0.0
1.38786845609 4.30926329506 0.0
1.05632730172 4.46025283906 0.0
0.549964048968 4.4630053958 0.0
0.806135520676 4.31186690218 0.0
0.603895783049 4.26079310371 0.0
1.22984770884 4.38318704125 0.0
0.3703382852 4.38423552752 0.0
0.995322815839 4.25565031136 0.0
0.728315816804 4.1765935937 0.0
0.872128173905 4.17288724072 0.0
1.14059401893 4.27298468684 0.0
0.461553191009 4.27181671009 0.0
0.784706775856 4.56821390922 0.0
0.398287125272 4.57945970538 0.0
1.20625306554 4.58334743514 0.0
0.624100842742 4.1589824436 0.0
0.5257453845 4.18811776279 0.0
0.978502430793 4.15488737058 0.0
1.07419209812 4.18825154482 0.0
0.364313698077 4.28677035763 0.0
1.23509538257 4.28681716733 0.0
0.68124123937 4.39284548972 0.0
1.31679378691 4.35012066749 0.0
0.283206213094 4.35012066749 0.0
0.791498533126 4.11467141721 0.0
0.931481076052 4.3801344917 0.0
0.966719065571 4.62778042839 0.0
0.684451667517 4.11068036752 0.0
0.618335406951 4.62686910993 0.0
0.450982331762 4.19686171732 0.0
0.915674266355 4.10995633851 0.0
1.14900051594 4.19689012964 0.0
1.30193709687 4.4481448133 0.0
0.298574667609 4.44816296922 0.0
1.05734787542 4.34990107617 0.0
0.539273225177 4.35252599628 0.0
0.709896798149 4.27721026287 0.0
0.895708916005 4.26924194389 0.0
0.813273511364 4.43835766235 0.0
0.559289631452 4.13230879113 0.0
1.04001407307 4.13281539633 0.0
0.801161810585 4.23146244955 0.0
0.665113819616 4.52056650186 0.0
0.852577362173 4.09111846388 0.0
0.390256727869 4.2242806298 0.0
1.20974450479 4.22428104599 0.0
0.921542541183 4.52778058719 0.0
1.14030889032 4.36437344809 0.0
1.15600477272 4.46808538305 0.0
0.435243219029 4.4750581257 0.0
0.462045157798 4.36654654286 0.0
0.735806812738 4.08472269746 0.0
1.30082934537 4.29793772796 0.0
0.299170654625 4.29793772796 0.0
0.533651712118 4.26265983853 0.0
0.666130919144 4.21652131559 0.0
1.0676097303 4.26179469382 0.0
1.08054433577 4.58530946155 0.0
0.506773767255 4.56568295079 0.0
0.626745312844 4.10124420826 0.0
0.933845304214 4.2106954732 0.0
0.293717639664 4.55175000185 0.0
0.312505022079 4.66426411351 0.0
1.3058164124 4.55154930624 0.0
1.29054387065 4.66302765963 0.0
0.973467966326 4.09941619478 0.0
0.487935413164 4.15087084015 0.0
0.461549079751 4.68836834982 0.0
1.11203248746 4.15093503889 0.0
1.14453515393 4.70617370303 0.0
0.840217564202 4.68891146633 0.0
0.585347033288 4.20539048534 0.0
0.619177396637 4.34227576306 0.0
0.331644410315 4.24962190462 0.0
1.26835558968 4.24962190462 0.0
1.01536156978 4.19987473052 0.0
0.809331033562 4.07065709122 0.0
0.982321540791 4.33437358971 0.0
0.725600576914 4.66999651799 0.0
0.812291456186 4.16642942492 0.0
0.335887692543 4.33918235669 0.0
1.26344844681 4.34017131907 0.0
1.23449730504 4.49457441524 0.0
1.34334172095 4.40539551957 0.0
0.256658279045 4.40539551957 0.0
0.741646926828 4.34287908527 0.0
0.674799084703 4.16673768522 0.0
1.18647435526 4.30955189749 0.0
0.360563250283 4.49596479569 0.0
0.873716483853 4.33845499203 0.0
0.418704489949 4.31146264283 0.0
0.492670911224 4.22931614809 0.0
0.403480880356 4.19046776931 0.0
1.19651541215 4.1904686246 0.0
0.728649253738 4.46214546491 0.0
1.00883674467 4.40174664879 0.0
1.11035034557 4.23161841276 0.0
0.261968539765 4.3130079512 0.0
1.33803146023 4.3130079512 0.0
0.74649980488 4.1318354354 0.0
0.927597725248 4.1577597079 0.0
0.892956618256 4.07619338913 0.0
0.659794281787 4.07951387326 0.0
0.587663534405 4.09486537006 0.0
0.942353209926 4.07935300973 0.0
1.01493747319 4.09476013719 0.0
0.613130017774 4.41369803882 0.0
0.449373501074 4.15377191978 0.0
0.514840228377 4.12225850006 0.0
0.497057592 4.41333092106 0.0
1.15061382426 4.15379293084 0.0
1.08514419473 4.12228328152 0.0
0.745617635771 4.23098957592 0.0
0.87523452213 4.59853036549 0.0
0.855262884783 4.2258970831 0.0
1.01126200032 4.53280064162 0.0
1.09391916408 4.40632408872 0.0
1.04436265455 4.71482000827 0.0
0.314320181089 4.38773968607 0.0
1.28649331902 4.38743720145 0.0
0.771211579291 4.06316862024 0.0
0.432259099658 4.24006002157 0.0
0.698583889427 4.07144353526 0.0
1.16802128371 4.238862881 0.0
1.09587629216 4.3086676659 0.0
1.35920470355 4.35666960471 0.0
0.240795296449 4.35666960471 0.0
0.504003580654 4.30815758118 0.0
0.579942709371 4.5342075073 0.0
0.875915224914 4.12815792528 0.0
0.426503136644 4.40717733008 0.0
0.57541416445 4.30365301522 0.0
0.683877978289 4.33161848113 0.0
0.888061695889 4.44633509246 0.0
0.26012287522 4.49859249103 0.0
1.33987712478 4.49859249103 0.0
0.801393572636 4.37060096582 0.0
0.558460082533 4.72496728209 0.0
1.1741923373 4.41132830101 0.0
0.83220012886 4.12779415912 0.0
1.02815069622 4.30053276509 0.0
0.948308583502 4.2880204454 0.0
0.846588933095 4.50834596945 0.0
0.343666800815 4.43485820652 0.0
1.25632767671 4.43480360053 0.0
0.97849585731 4.47031535602 0.0
1.10170977548 4.51507265998 0.0
0.662193131828 4.26809398492 0.0
0.400503668388 4.26881657105 0.0
1.20117145985 4.26130427377 0.0
0.350957892513 4.21796558019 0.0
1.24904210749 4.21796558019 0.0
0.771964652188 4.18905379403 0.0
0.932165148285 4.72736281402 0.0
0.373672364094 4.73321357765 0.0
0.760245937722 4.28409350779 0.0
0.848718469252 4.05767763075 0.0
1.23385612561 4.7358294747 0.0
0.846421485813 4.28065918421 0.0
0.651597058631 4.13043284014 0.0
0.650489852552 4.72138045504 0.0
0.58457834847 4.16375088261 0.0
0.48701309933 4.18859927013 0.0
0.708495738406 4.58856947756 0.0
1.11203398596 4.18878062515 0.0
0.54865558244 4.10250047869 0.0
1.05126102377 4.10234629471 0.0
0.300013757486 4.26259646442 0.0
1.29998624251 4.26259646442 0.0
0.9465032388 4.12718070354 0.0
0.708587583337 4.14146095907 0.0
0.973348904468 4.19537871864 0.0
0.628721855632 4.19538356945 0.0
0.380175010018 4.34021880077 0.0
0.662092932411 4.45899041267 0.0
1.05133526787 4.22221992007 0.0
0.528087045766 4.64327882187 0.0
1.22233124543 4.33521693908 0.0
1.19001193434 4.36273586668 0.0
0.853024099244 4.39544003492 0.0
0.542800296246 4.22324366905 0.0
0.247706318737 4.45239119247 0.0
1.35229368126 4.45239119247 0.0
0.599153768578 4.12953797005 0.0
1.01616570494 4.16227683178 0.0
0.744705786938 4.40569544575 0.0
1.31929001115 4.73702550052 0.0
0.777615355331 4.15113602511 0.0
1.33132411895 4.60631378639 0.0
0.265621610877 4.60975488866 0.0
0.532023338888 4.15374454388 0.0
1.0697792195 4.15241429251 0.0
0.286371037106 4.73010312914 0.0
0.497725885905 4.50153668256 0.0
0.46053455822 4.31587947599 0.0
0.433799237968 4.54629400991 0.0
0.388624781906 4.65094200004 0.0
0.554823673752 4.40451940232 0.0
1.1421595646 4.31818301431 0.0
1.14760043966 4.61655103139 0.0
1.21258698805 4.65320200685 0.0
1.16279096046 4.53292621409 0.0
0.995762647814 4.12508772517 0.0
0.456229040627 4.61456685246 0.0
0.707289391156 4.21520271873 0.0
0.763036833302 4.74285445535 0.0
0.78386198569 4.49787013126 0.0
[...]
POINT_DATA 999
VECTORS Displacement float
-0.00141170136572 -0.118434538434 0
0.00136193691206 -0.118462199293 0
0.0 -0.12 0
0.0 -0.12 0
0.00145254329213 -0.118454525532 0
0.00154081911888 -0.118443252562 0
0.00162006735175 -0.118428877816 0
0.00168654723459 -0.118419027773 0
0.00172467193451 -0.11841811611 0
0.00174561056692 -0.11843071384 0
0.00172312396722 -0.118460887145 0
0.00165305565027 -0.118513388628 0
0.00152796406267 -0.11860726029 0
0.00132476283224 -0.118754789635 0
0.001034265761 -0.118986562931 0
0.000620768748272 -0.119350926344 0
0.0 -0.12 0
0.0 -0.12 0
0.0 -0.12 0
0.0 -0.12 0
0.0 -0.12 0
0.0 -0.12 0
0.0 -0.12 0
0.0 -0.12 0
0.0 -0.12 0
0.0 -0.12 0
0.0 -0.12 0
0.0 -0.12 0
0.0 -0.12 0
0.0 -0.12 0
0.0 -0.12 0
0.0 -0.12 0
0.0 -0.12 0
-0.000622856252624 -0.119347205313 0
-0.00104129185557 -0.118978433535 0
-0.00134886411374 -0.118741201912 0
-0.00155018561071 -0.118588147703 0
-0.00167821421673 -0.118491216732 0
-0.00175312154214 -0.118436806549 0
-0.0017795029389 -0.118405894568 0
-0.00176184430341 -0.118392512347 0
-0.0017267076127 -0.118392741997 0
-0.00166298663481 -0.118402016263 0
-0.00158628951201 -0.118415976957 0
-0.00150031131145 -0.11842698663 0
-0.00133877431699 -0.11838833177 0
-0.0012585630665 -0.118337665161 0
-0.00117155271127 -0.118278908529 0
-0.0010762090634 -0.11821200147 0
-0.000973286674091 -0.118134203971 0
-0.000865468453526 -0.118043642725 0
-0.000751811895738 -0.117941849829 0
-0.000628246524442 -0.117827512217 0
-0.000497210304195 -0.117692662679 0
-0.000364120844845 -0.117547501885 0
-0.000223438176876 -0.117382868951 0
-7.22051926778e-05 -0.117199137971 0
8.20866393123e-05 -0.116990567508 0
0.000244904439709 -0.116759336695 0
0.000414406802024 -0.116501359513 0
0.000595161429266 -0.116209352935 0
0.000779687460775 -0.115878099214 0
0.000985731351921 -0.115497904747 0
0.00119138363885 -0.115052717371 0
0.0014245629504 -0.114491912271 0
0.00164812861939 -0.113796188302 0
0.00182511885949 -0.113042491441 0
0.00192514884645 -0.112332394009 0
0.001961852299 -0.111652335137 0
0.00194917896282 -0.111023251047 0
0.00187924404974 -0.110437532191 0
0.00177421957742 -0.109909904172 0
0.00162754407208 -0.10943578595 0
0.0014581514316 -0.109028747394 0
0.00125211073126 -0.108671402449 0
0.00102796259259 -0.10838268369 0
0.000775749901164 -0.108150329751 0
0.000516864407411 -0.107982100229 0
0.000246110622587 -0.10788149909 0
-5.28543521899e-05 -0.107835760485 0
-0.000336923125088 -0.10786474044 0
-0.00061219869199 -0.107975224399 0
-0.000871982543361 -0.108140439722 0
-0.00111631193039 -0.1083718675 0
-0.0013413095082 -0.108663851883 0
-0.00154806029719 -0.109020063118 0
-0.00172641552961 -0.109438527494 0
-0.0018623341254 -0.109901110677 0
-0.00196677904459 -0.110423384561 0
-0.00203593179672 -0.111010843697 0
-0.00205075720989 -0.111636027934 0
-0.00201644442906 -0.112313403923 0
-0.0019156562841 -0.113031800783 0
-0.00173871941324 -0.113784459991 0
-0.00150842341891 -0.114494945924 0
-0.00127276852577 -0.115056676629 0
-0.00106494973258 -0.115503761127 0
-0.000856958389343 -0.115885687659 0
-0.000670640558969 -0.116218653101 0
-0.000488094430696 -0.11651233879 0
-0.000316787781699 -0.116771887575 0
-0.00015220218417 -0.117004564556 0
3.79821675134e-06 -0.117214515483 0
0.000156732870439 -0.117399559326 0
0.000299105159146 -0.117565430227 0
0.000433870954896 -0.117711741747 0
0.000566528053043 -0.117847645279 0
0.000691654611312 -0.117962943406 0
0.000806816405513 -0.11806566729 0
0.000916137788015 -0.118157147722 0
0.00102052742666 -0.118235837699 0
0.00111733000473 -0.118303650996 0
0.00120580471137 -0.118363330787 0
0.00128749113087 -0.118414956679 0
0.00126235959921 -0.116727993538 0
-0.00127139129882 -0.116707887915 0
6.19640238777e-06 -0.113155738001 0
-0.000902295669786 -0.113812868217 0
0.00156008275025 -0.117579409676 0
-0.00160317966682 -0.117568336884 0
0.000821608433846 -0.113728540023 0
-0.000162568349758 -0.110884589009 0
7.16569349376e-05 -0.110818166432 0
0.00111721842614 -0.116184746764 0
-0.00116599684993 -0.116139053251 0
-8.38848906739e-05 -0.11713256148 0
-0.00137887751442 -0.118441499907 0
0.00134963817131 -0.118488123689 0
-0.000161292679867 -0.112027652471 0
-0.000529767375192 -0.114519706141 0
3.79447960937e-05 -0.112017881968 0
0.000465626894533 -0.114515749562 0
-0.00123309236583 -0.117358838344 0
0.0011793264937 -0.117367415115 0
-0.000734985696458 -0.114914485791 0
0.00147829561767 -0.118074771411 0
-0.00152502189408 -0.118054497625 0
-1.55911846465e-05 -0.109414497045 0
0.000758224030954 -0.114809840983 0
0.000625873666075 -0.118101777973 0
0.000337377908339 -0.110189547422 0
-0.000697879446804 -0.118127494438 0
-0.000562411706896 -0.116045775885 0
-0.000428431474328 -0.110171184157 0
0.000499048802443 -0.116053810815 0
0.00169010312903 -0.118186622868 0
-0.00172576207038 -0.118168325814 0
0.00125308473944 -0.115642631814 0
-0.00131218766645 -0.115703419231 0
-0.000505525327707 -0.112860307844 0
0.000457464544636 -0.112765319794 0
6.27069517019e-05 -0.115272534032 0
0.000198594755248 -0.113221966964 0
-0.000266288633262 -0.113201174195 0
-2.97773336325e-05 -0.111661628721 0
-0.000716609155311 -0.116743255243 0
-0.00032913544255 -0.109154577013 0
-0.000786807192522 -0.116984249193 0
0.000725912197543 -0.116998084792 0
0.000614695176033 -0.116788737881 0
0.00144197462973 -0.116686927625 0
0.00150748411827 -0.117500923776 0
-0.0015544820631 -0.1175940648 0
-0.00148563332643 -0.11666661977 0
0.000348944273676 -0.109135782093 0
0.00123143285409 -0.117931294431 0
-0.00128373414935 -0.117911420343 0
-0.00107040271631 -0.114954730195 0
-0.000506011740536 -0.112264417357 0
0.00100833491927 -0.114969941241 0
0.00108334561032 -0.118044355197 0
-0.00119563901308 -0.117919198449 0
0.000654182194235 -0.111102846525 0
0.000407009243266 -0.112162771022 0
-0.00161025634408 -0.118531400342 0
-0.00111355423948 -0.119069797907 0
0.0015863267991 -0.118544692423 0
0.00111299535397 -0.119071190492 0
-0.000769406886109 -0.111072213419 0
-2.44319114874e-05 -0.115208418368 0
-0.000805416177134 -0.119043632235 0
-4.63403187468e-05 -0.115211735755 0
0.000717316318203 -0.119189722118 0
0.000117975624641 -0.118616306618 0
-0.000642968516671 -0.113431013113 0
-0.00102631569677 -0.114703716282 0
-0.000972691178272 -0.117625271345 0
0.000915185655305 -0.117643303295 0
0.000531823649238 -0.113372508224 0
-0.000119608616997 -0.108604576398 0
0.000970657269803 -0.11461772866 0
-0.00025572313283 -0.118425608663 0
-2.59612366672e-05 -0.110414610526 0
-0.00148440134526 -0.11770028868 0
0.00144022298281 -0.117713678633 0
0.00160575446196 -0.118089980148 0
0.00164927044372 -0.118256621738 0
-0.00169036153799 -0.118235415317 0
-0.000380375619534 -0.113814146438 0
-0.000181288790811 -0.111297625224 0
0.00130518382439 -0.116913894732 0
-0.00164459506374 -0.118105876688 0
0.000418762815048 -0.11380712599 0
-0.00136392866635 -0.116853628042 0
-0.000893501611979 -0.115427575228 0
-0.000451202994153 -0.116779235552 0
0.000386165569803 -0.116791372636 0
-0.000432708347047 -0.115735211872 0
0.00111988856924 -0.115712532603 0
0.000848710617539 -0.115498995766 0
-0.00135961547089 -0.118147791365 0
0.00130873756834 -0.118170274 0
3.97132762816e-05 -0.109912361227 0
3.74863761017e-05 -0.111170425263 0
-0.000702167917396 -0.109285090055 0
0.000881593627831 -0.11008489647 0
0.00091062743865 -0.111997798326 0
-0.000981152431257 -0.110120026629 0
-0.00100291632254 -0.112058561996 0
-0.00106561954812 -0.115678516078 0
-1.27898524829e-05 -0.116014657102 0
0.000430287415013 -0.114435036813 0
-0.00145777074825 -0.116673011858 0
-5.77187564522e-05 -0.116022538192 0
-0.000505811187583 -0.114434012205 0
-0.00026009341379 -0.111796404927 0
0.000322612454192 -0.117574980176 0
0.000186946616449 -0.111703928888 0
0.000985911538395 -0.117223845834 0
0.00139279553833 -0.116537703186 0
0.000540623888791 -0.119108355063 0
-0.00163542241938 -0.117944034568 0
0.00159262025358 -0.117965027428 0
0.000205491324246 -0.108531688708 0
-0.000946513978402 -0.11644858534 0
0.000735123170597 -0.109323749164 0
0.000876568809695 -0.116458643869 0
0.00123874468583 -0.115768461068 0
0.00150447543031 -0.118284704838 0
-0.00155086841407 -0.118261096181 0
-0.00128967752208 -0.115762952143 0
-0.00104036093057 -0.117280425414 0
-0.000173764263614 -0.110016662701 0
-0.00158425784005 -0.117237297276 0
-0.00112301948585 -0.114742175523 0
-0.000703993134401 -0.113961137113 0
0.000503594591495 -0.115554607324 0
-0.00173820987898 -0.118396496561 0
0.00170589420488 -0.118415380846 0
-1.48005208364e-05 -0.114173835234 0
-0.000500262352391 -0.119187240892 0
0.00154563823265 -0.11727813879 0
-0.000100624628755 -0.109717584403 0
0.00107123610471 -0.114754744136 0
0.000741544097731 -0.113580024974 0
0.00024354110534 -0.116342536293 0
-0.001686169645 -0.117921915793 0
0.00164913356579 -0.117935455748 0
0.000946277546152 -0.11632587993 0
0.00131260932165 -0.117526661078 0
-0.000707121835483 -0.113154298951 0
-0.00113400345012 -0.116933127589 0
0.00102685393627 -0.116949730831 0
-0.000712317664246 -0.117426231008 0
0.000651238692419 -0.117442992233 0
-0.000104595634404 -0.110885743453 0
0.00028969124845 -0.119092826245 0
-0.000633100020313 -0.119454369259 0
-0.0002478956779 -0.112718560095 0
-0.000506934292032 -0.108544145126 0
0.00061235544891 -0.11947769161 0
0.000219804421349 -0.11267894528 0
0.000170073391905 -0.111055643531 0
-0.000348818029766 -0.119051359449 0
-0.000245380167915 -0.112937960043 0
-0.000511154914092 -0.115346677888 0
-0.000420916262122 -0.117481302826 0
0.000450508539679 -0.115333386864 0
0.000821481185052 -0.113261846675 0
-0.000904746316598 -0.113248193009 0
-0.00106329264163 -0.11789156953 0
0.00100731697324 -0.117911789332 0
-0.000289710958176 -0.110966023953 0
2.08745572987e-05 -0.110426493797 0
0.000414071257944 -0.112525305409 0
-0.000479584382764 -0.112492715409 0
-0.00148063275537 -0.117340157315 0
-0.000795853918841 -0.115953792719 0
0.000750214762869 -0.114320435863 0
-0.000887494860601 -0.118527748595 0
0.00141596223214 -0.117359688587 0
0.00148657224467 -0.117164828876 0
0.000306153870106 -0.114661827142 0
-0.00082905729658 -0.114448140963 0
-0.00175569406827 -0.118324463149 0
0.00171924088398 -0.118345231719 0
0.00022482136159 -0.112154901185 0
0.000156134923831 -0.112931954482 0
-0.000361217490466 -0.114830328031 0
0.000661554388905 -0.119467998655 0
-4.06294035333e-05 -0.110135877402 0
0.00143647386982 -0.118768583435 0
-0.00144633608788 -0.118769184657 0
-0.000118970299736 -0.114133974564 0
2.6448927312e-05 -0.114169755737 0
-0.000707187659442 -0.119430106213 0
-0.00137003368786 -0.117409412617 0
-0.0013600992689 -0.116379005906 0
-0.00141891601139 -0.118089853231 0
-0.00109009456234 -0.118921645009 0
-0.00129309403199 -0.116068497582 0
0.0013205421248 -0.116432821261 0
0.00112703095483 -0.118536200325 0
0.00106682113328 -0.118942937071 0
0.00141973632055 -0.117986377421 0
-0.000370191915813 -0.111956906217 0
-0.00114352740568 -0.118505180607 0
-0.000364176550005 -0.111784211239 0
-7.88060111397e-05 -0.119199476277 0
-0.000104723379689 -0.116165776585 0
0.000698975524072 -0.114056881279 0
-0.00010944197267 -0.116516854564 0
0.000274415582573 -0.111694604555 0
4.06277184227e-05 -0.116527760298 0
0.00166247204436 -0.118296087465 0
0.000558665402636 -0.108740885639 0
-0.00120741960691 -0.117674939963 0
0.00115360209228 -0.117692743851 0
-0.000485909993474 -0.117173562148 0
0.00042176160477 -0.117188574937 0
-0.00103124201194 -0.116479001042 0
-0.00154708062806 -0.117167741494 0
0.000130569134624 -0.10910349427 0
-0.00045653290724 -0.116798655753 0
-0.00100729628078 -0.117302100387 0
0.000950137389796 -0.117316600069 0
-0.00169230242077 -0.118264310162 0
0.00160231237683 -0.117735099626 0
0.000635418212978 -0.112994186521 0
-0.00120173946833 -0.118083349104 0
0.00114798512721 -0.118105397482 0
0.000796195813802 -0.118723477684 0
-0.00163099932474 -0.117716790663 0
-0.00144574672972 -0.118280154876 0
0.00139672067332 -0.118304563078 0
0.00113891236063 -0.110900292692 0
7.58076054275e-05 -0.111097172095 0
0.0013672234301 -0.118726796455 0
-0.00139143622804 -0.118716150162 0
-0.00111171793443 -0.115566993119 0
0.00027710270638 -0.109762725752 0
-1.70743933533e-05 -0.11225091093 0
-0.000144816092547 -0.109146450806 0
0.00136177118347 -0.116187332978 0
0.00106123986199 -0.115594883316 0
-0.000915108551812 -0.11399581791 0
-0.00104239905287 -0.109386956076 0
-0.00119162479443 -0.11090966971 0
0.00141303840527 -0.117160351879 0
-0.00145885351563 -0.117910190618 0
0.00141064878458 -0.117928666157 0
0.000659029510674 -0.117410758344 0
-0.00141073613559 -0.116195747422 0
-0.000948777967928 -0.114164020983 0
0.00030993280989 -0.113679040747 0
-0.000745918529662 -0.117403577141 0
-7.76671926942e-05 -0.118118552043 0
0.00032976502717 -0.115419818294 0
-0.00040363821389 -0.11542469461 0
-0.000898819210226 -0.115979620946 0
0.000803210637085 -0.115987318387 0
-0.00167656306995 -0.118518633836 0
0.00165013716118 -0.118535878574 0
-0.0007460348699 -0.113202334589 0
0.000903167894917 -0.114258108031 0
-0.000451631861352 -0.11381609381 0
0.000862962180534 -0.117988520157 0
-0.000729113331179 -0.108775349343 0
0.000783283267996 -0.115647842718 0
0.0015950168175 -0.118331060593 0
-0.00163867705034 -0.118307065401 0
-0.00062872296656 -0.116499928329 0
-0.000400420309187 -0.109583832708 0
0.000565575906979 -0.116510110425 0
-0.000532392007584 -0.112459269286 0
0.000358228777815 -0.118359975479 0
0.000414305624702 -0.119507916499 0
0.00127129328405 -0.11607791783 0
-0.00119617525602 -0.115374458603 0
0.00159719393947 -0.11811441985 0
-0.00163997692403 -0.118095175124 0
0.00152003280285 -0.118406697946 0
-0.00155165563116 -0.118381667211 0
-0.000130383098753 -0.110525163261 0
0.0011766144883 -0.116630677602 0
0.00108937095532 -0.109484675095 0
1.68045831512e-05 -0.108242170586 0
-1.70598990416e-05 -0.110342998666 0
-0.00153293875347 -0.117165772043 0
-0.00121958134489 -0.116689185227 0
-0.000776017799274 -0.117651956491 0
0.000715943600499 -0.117670465223 0
0.000183103765961 -0.113857996955 0
0.000436282836117 -0.112309267196 0
-0.000313993061188 -0.10836000458 0
0.00110636415455 -0.119082747033 0
-0.00138277502641 -0.117579307265 0
0.00132598736689 -0.117596474522 0
0.00109069132527 -0.115129947885 0
-0.00121023702299 -0.118994426391 0
-0.000394767699034 -0.119537169443 0
0.00148343337306 -0.116896106079 0
-0.000962343679534 -0.118064918274 0
-0.00027067299103 -0.111839995841 0
0.000964531709645 -0.115045037242 0
0.00114445222884 -0.115212926246 0
0.000619357409091 -0.113171140209 0
0.000927949404733 -0.114152403779 0
-0.000939770355648 -0.115035798208 0
-0.00154616309757 -0.117991248386 0
0.000523477901634 -0.110618229084 0
0.000206976397647 -0.111650360424 0
-0.00155354378788 -0.117895658039 0
0.00150743443075 -0.117919187428 0
-0.000898167999726 -0.117817381065 0
0.000839771627279 -0.117837186657 0
0.000148110763392 -0.111209579864 0
0.00123441274122 -0.117136039554 0
0.0011841544173 -0.117247773956 0
0.000200903735647 -0.111844133039 0
-0.00120775407804 -0.115233954757 0
-0.000411773842724 -0.113147809856 0
-0.00137635074397 -0.117197012281 0
-0.00146651489959 -0.118175326439 0
0.00141801674557 -0.118197820108 0
0.000123532531572 -0.119288358085 0
-0.000279626416852 -0.114732576385 0
-0.000253816891008 -0.115613562252 0
-0.00152062027995 -0.116881203219 0
0.000399977490193 -0.113137635718 0
-0.000635738865412 -0.110606970033 0
-0.0014138381519 -0.116973411899 0
0.000724118774651 -0.114845082887 0
0.00042079447829 -0.119602129631 0
0.00121894771303 -0.112640514861 0
0.000188985004463 -0.115621179857 0
-0.000436552650234 -0.118279511592 0
-5.94165329907e-05 -0.110343120072 0
0.000249543755172 -0.114784492126 0
-0.000166789258609 -0.112126814636 0
0.000930783186934 -0.11394857744 0
-0.00133660494343 -0.112637477424 0
-0.000765776005282 -0.11485421646 0
-0.00101116889797 -0.113942268605 0
-4.17782287768e-05 -0.109890662617 0
0.000118509274163 -0.112093291353 0
4.26249224075e-05 -0.108804054005 0
0.00169048979153 -0.11834440989 0
-0.00172985514324 -0.118321682795 0
0.00140585937007 -0.111364356972 0
0.00133701170117 -0.110323430866 0
-0.000145276501164 -0.119456763805 0
-0.00141266268352 -0.110307703326 0
-0.00148460870102 -0.111378857999 0
0.000667213713967 -0.115111247436 0
0.000373631221456 -0.115862990683 0
-0.000258500806444 -0.111322967421 0
-0.000744332870445 -0.115115064016 0
-0.000447667153516 -0.115870268809 0
0.00155257027692 -0.11786203625 0
0.00071946861132 -0.118503175787 0
-0.000151298403075 -0.113698055729 0
0.000482761151829 -0.108372725878 0
-0.00070779744194 -0.109726857641 0
0.000856541409233 -0.108786193718 0
6.70904916935e-05 -0.110723396274 0
0.00148644372949 -0.117555350744 0
0.00159203489307 -0.11822827022 0
-0.00163557842702 -0.118206620379 0
-0.00122258286058 -0.117214339332 0
0.00165638648557 -0.118101844047 0
-0.00169601685465 -0.118084303213 0
0.000175456119667 -0.117052569743 0
-0.000798323987677 -0.113591705915 0
0.000259470295419 -0.119453222573 0
-0.000288022811278 -0.108835277424 0
0.000495886787464 -0.114536207697 0
-0.000205281173469 -0.116956418903 0
0.000137879250724 -0.116970087086 0
-0.00158760091063 -0.117744723747 0
0.000609651105605 -0.113436368009 0
-0.000459187100772 -0.112538132113 0
-0.000388460316275 -0.112643713459 0
0.0012453789399 -0.11813944194 0
-0.000201767494284 -0.111242277643 0
-0.000681930666342 -0.113403945922 0
0.000649712442966 -0.109832982723 0
-1.94017832316e-05 -0.110969826255 0
-0.00163480540711 -0.11757420246 0
-0.00057646238271 -0.115229981047 0
-0.000176930085607 -0.109692859898 0
-0.000206841987411 -0.11541477287 0
-0.00060490278534 -0.114298136499 0
0.000391381200278 -0.113713195229 0
-0.000364912269338 -0.116422862496 0
0.000298835992873 -0.11643309384 0
-0.00046622736555 -0.113705634163 0
0.000193673606043 -0.113265280404 0
0.000162270857159 -0.109444455629 0
0.000553870347248 -0.112761249654 0
0.00167105173868 -0.118122436785 0
-0.0017045001071 -0.11809818038 0
-0.000386304276584 -0.119632616208 0
0.000294082521454 -0.112666109805 0
0.00159408728047 -0.117576223011 0
4.94077373115e-05 -0.109503809359 0
-0.00102213858021 -0.108974740515 0
-0.00142935241305 -0.118048328316 0
0.001379925223 -0.118069116322 0
-0.00128325411587 -0.118235295645 0
0.00123092211561 -0.118259276932 0
-0.000473470708707 -0.109175858989 0
-0.0014773833427 -0.116900507885 0
0.000543782103302 -0.111733847563 0
0.00149659257203 -0.1182507856 0
0.000752081367039 -0.113860082343 0
-0.000390833918053 -0.111328188377 0
0.00154330448473 -0.117761547311 0
-0.00149972284109 -0.118335258926 0
0.00145198558631 -0.118360646988 0
0.000390656408665 -0.116870715772 0
0.00110943234332 -0.116258303716 0
5.21052943426e-05 -0.114620093139 0
-0.00134469479529 -0.117765105844 0
0.00129356520951 -0.117782890147 0
-0.000963358670683 -0.116798921302 0
-0.000131156637553 -0.11142249232 0
0.000886127128521 -0.11682400293 0
0.000605297588671 -0.112998117088 0
0.00034061125937 -0.108760784276 0
-0.00139075408487 -0.11619457248 0
-0.000120584376362 -0.114636103732 0
-0.000648789509545 -0.11678533195 0
0.000585889129461 -0.116797015571 0
0.000853184639254 -0.116897286533 0
-0.00103057706725 -0.115817073848 0
-0.000407704014486 -0.119679194666 0
-0.00105416820901 -0.118028433679 0
0.000998092818851 -0.118050117267 0
0.000436097836819 -0.109399259807 0
0.000109066476239 -0.11634671614 0
-0.000180329996103 -0.116356613378 0
-0.000343727517902 -0.112416781113 0
-0.000348768715583 -0.111758850017 0
-0.00031977621136 -0.119376181519 0
-0.000702672073175 -0.11571319186 0
-0.000612124216182 -0.116194177793 0
0.00141333204147 -0.116820089169 0
0.000272931407654 -0.115724461527 0
0.000640003512392 -0.115746600584 0
0.00029553133471 -0.112354881362 0
0.00169187992137 -0.118249206629 0
-0.00172998706762 -0.118229937303 0
-0.000971873677552 -0.115056975089 0
-0.00111207810643 -0.117500051561 0
0.00105553259984 -0.117512931641 0
0.00120670906132 -0.115980763411 0
-0.000890273331437 -0.117450786891 0
0.000824629347515 -0.11746248545 0