# vtk DataFile Version 2.0
Generated with Solid Solver
ASCII
DATASET UNSTRUCTURED_GRID
POINTS 999 float 
0.2 4.325 0.0
1.4 4.325 0.0
1.4 4.825 0.0
0.2 4.825 0.0
1.4 4.34523264049 0.0
1.4 4.36751203886 0.0
1.4 4.39204525371 0.0
1.4 4.4190602782 0.0
1.4 4.44880817466 0.0
1.4 4.48156541084 0.0
1.4 4.51763640748 0.0
1.4 4.5573564007 0.0
1.4 4.60109451608 0.0
1.4 4.64925723872 0.0
1.4 4.70229217343 0.0
1.4 4.76069218095 0.0
1.33333333333 4.825 0.0
1.26666666667 4.825 0.0
1.2 4.825 0.0
1.13333333333 4.825 0.0
1.06666666667 4.825 0.0
1.0 4.825 0.0
0.933333333334 4.825 0.0
0.866666666668 4.825 0.0
0.800000000001 4.825 0.0
0.733333333334 4.825 0.0
0.666666666668 4.825 0.0
0.600000000001 4.825 0.0
0.533333333334 4.825 0.0
0.466666666667 4.825 0.0
0.4 4.825 0.0
0.333333333334 4.825 0.0
0.266666666667 4.825 0.0
0.2 4.76069218095 0.0
0.2 4.70229217343 0.0
0.2 4.64925723872 0.0
0.2 4.60109451608 0.0
0.2 4.5573564007 0.0
0.2 4.51763640748 0.0
0.2 4.48156541084 0.0
0.2 4.44880817466 0.0
0.2 4.4190602782 0.0
0.2 4.39204525371 0.0
0.2 4.36751203886 0.0
0.2 4.34523264049 0.0
0.212131543907 4.30926329506 0.0
0.224675715302 4.29385348652 0.0
0.23762369102 4.27878141198 0.0
0.250966423879 4.26405760374 0.0
0.264694484585 4.24969246611 0.0
0.278798324214 4.23569599189 0.0
0.293267939266 4.22207810803 0.0
0.308093289028 4.20884826442 0.0
0.323263842145 4.19601585877 0.0
0.338769084145 4.18358978512 0.0
0.354597997314 4.17157887342 0.0
0.37073960121 4.15999145532 0.0
0.387182441982 4.14883575334 0.0
0.403915091795 4.13811952025 0.0
0.420925712897 4.12785033813 0.0
0.438202430937 4.11803537461 0.0
0.455733079095 4.10868154223 0.0
0.473505374364 4.09979539439 0.0
0.491506842655 4.09138316882 0.0
0.509724826085 4.0834507802 0.0
0.528146580414 4.07600377808 0.0
0.546759103951 4.06904741762 0.0
0.56554943677 4.06258654322 0.0
0.584504260001 4.05662573401 0.0
0.60361041518 4.0511691282 0.0
0.622854334779 4.04622060039 0.0
0.642222678753 4.04178358113 0.0
0.661701681839 4.03786122392 0.0
0.681277836375 4.03445624851 0.0
0.700937245817 4.03157107217 0.0
0.720666255912 4.02920769845 0.0
0.740450894784 4.02736780161 0.0
0.76027736978 4.02605266363 0.0
0.780131702711 4.02526321235 0.0
0.799999999998 4.025 0.0
0.819868297285 4.02526321235 0.0
0.839722630216 4.02605266363 0.0
0.859549105212 4.02736780161 0.0
0.879333744085 4.02920769845 0.0
0.89906275418 4.03157107217 0.0
0.918722163621 4.03445624851 0.0
0.938298318157 4.03786122392 0.0
0.957777321244 4.04178358113 0.0
0.977145665218 4.04622060039 0.0
0.996389584817 4.0511691282 0.0
1.01549574 4.05662573401 0.0
1.03445056323 4.06258654322 0.0
1.05324089605 4.06904741762 0.0
1.07185341958 4.07600377808 0.0
1.09027517391 4.0834507802 0.0
1.10849315734 4.09138316882 0.0
1.12649462563 4.09979539439 0.0
1.1442669209 4.10868154222 0.0
1.16179756906 4.1180353746 0.0
1.1790742871 4.12785033813 0.0
1.1960849082 4.13811952024 0.0
1.21281755802 4.14883575334 0.0
1.22926039879 4.15999145532 0.0
1.24540200269 4.17157887342 0.0
1.26123091585 4.18358978512 0.0
1.27673615785 4.19601585877 0.0
1.29190671097 4.20884826442 0.0
1.30673206073 4.22207810803 0.0
1.32120167579 4.23569599189 0.0
1.33530551541 4.24969246611 0.0
1.34903357612 4.26405760374 0.0
1.36237630898 4.27878141198 0.0
1.3753242847 4.29385348652 0.0
1.38786845609 4.30926329506 0.0
1.05632730172 4.46025283906 0.0
0.549964048968 4.4630053958 0.0
0.806135520676 4.31186690218 0.0
0.603895783049 4.26079310371 0.0
1.22984770884 4.38318704125 0.0
0.3703382852 4.38423552752 0.0
0.995322815839 4.25565031136 0.0
0.728315816804 4.1765935937 0.0
0.872128173905 4.17288724072 0.0
1.14059401893 4.27298468684 0.0
0.461553191009 4.27181671009 0.0
0.784706775856 4.56821390922 0.0
0.398287125272 4.57945970538 0.0
1.20625306554 4.58334743514 0.0
0.624100842742 4.1589824436 0.0
0.5257453845 4.18811776279 0.0
0.978502430793 4.15488737058 0.0
1.07419209812 4.18825154482 0.0
0.364313698077 4.28677035763 0.0
1.23509538257 4.28681716733 0.0
0.68124123937 4.39284548972 0.0
1.31679378691 4.35012066749 0.0
0.283206213094 4.35012066749 0.0
0.791498533126 4.11467141721 0.0
0.931481076052 4.3801344917 0.0
0.966719065571 4.62778042839 0.0
0.684451667517 4.11068036752 0.0
0.618335406951 4.62686910993 0.0
0.450982331762 4.19686171732 0.0
0.915674266355 4.10995633851 0.0
1.14900051594 4.19689012964 0.0
1.30193709687 4.4481448133 0.0
0.298574667609 4.44816296922 0.0
1.05734787542 4.34990107617 0.0
0.539273225177 4.35252599628 0.0
0.709896798149 4.27721026287 0.0
0.895708916005 4.26924194389 0.0
0.813273511364 4.43835766235 0.0
0.559289631452 4.13230879113 0.0
1.04001407307 4.13281539633 0.0
0.801161810585 4.23146244955 0.0
0.665113819616 4.52056650186 0.0
0.852577362173 4.09111846388 0.0
0.390256727869 4.2242806298 0.0
1.20974450479 4.22428104599 0.0
0.921542541183 4.52778058719 0.0
1.14030889032 4.36437344809 0.0
1.15600477272 4.46808538305 0.0
0.435243219029 4.4750581257 0.0
0.462045157798 4.36654654286 0.0
0.735806812738 4.08472269746 0.0
1.30082934537 4.29793772796 0.0
0.299170654625 4.29793772796 0.0
0.533651712118 4.26265983853 0.0
0.666130919144 4.21652131559 0.0
1.0676097303 4.26179469382 0.0
1.08054433577 4.58530946155 0.0
0.506773767255 4.56568295079 0.0
0.626745312844 4.10124420826 0.0
0.933845304214 4.2106954732 0.0
0.293717639664 4.55175000185 0.0
0.312505022079 4.66426411351 0.0
1.3058164124 4.55154930624 0.0
1.29054387065 4.66302765963 0.0
0.973467966326 4.09941619478 0.0
0.487935413164 4.15087084015 0.0
0.461549079751 4.68836834982 0.0
1.11203248746 4.15093503889 0.0
1.14453515393 4.70617370303 0.0
0.840217564202 4.68891146633 0.0
0.585347033288 4.20539048534 0.0
0.619177396637 4.34227576306 0.0
0.331644410315 4.24962190462 0.0
1.26835558968 4.24962190462 0.0
1.01536156978 4.19987473052 0.0
0.809331033562 4.07065709122 0.0
0.982321540791 4.33437358971 0.0
0.725600576914 4.66999651799 0.0
0.812291456186 4.16642942492 0.0
0.335887692543 4.33918235669 0.0
1.26344844681 4.34017131907 0.0
1.23449730504 4.49457441524 0.0
1.34334172095 4.40539551957 0.0
0.256658279045 4.40539551957 0.0
0.741646926828 4.34287908527 0.0
0.674799084703 4.16673768522 0.0
1.18647435526 4.30955189749 0.0
0.360563250283 4.49596479569 0.0
0.873716483853 4.33845499203 0.0
0.418704489949 4.31146264283 0.0
0.492670911224 4.22931614809 0.0
0.403480880356 4.19046776931 0.0
1.19651541215 4.1904686246 0.0
0.728649253738 4.46214546491 0.0
1.00883674467 4.40174664879 0.0
1.11035034557 4.23161841276 0.0
0.261968539765 4.3130079512 0.0
1.33803146023 4.3130079512 0.0
0.74649980488 4.1318354354 0.0
0.927597725248 4.1577597079 0.0
0.892956618256 4.07619338913 0.0
0.659794281787 4.07951387326 0.0
0.587663534405 4.09486537006 0.0
0.942353209926 4.07935300973 0.0
1.01493747319 4.09476013719 0.0
0.613130017774 4.41369803882 0.0
0.449373501074 4.15377191978 0.0
0.514840228377 4.12225850006 0.0
0.497057592 4.41333092106 0.0
1.15061382426 4.15379293084 0.0
1.08514419473 4.12228328152 0.0
0.745617635771 4.23098957592 0.0
0.87523452213 4.59853036549 0.0
0.855262884783 4.2258970831 0.0
1.01126200032 4.53280064162 0.0
1.09391916408 4.40632408872 0.0
1.04436265455 4.71482000827 0.0
0.314320181089 4.38773968607 0.0
1.28649331902 4.38743720145 0.0
0.771211579291 4.06316862024 0.0
0.432259099658 4.24006002157 0.0
0.698583889427 4.07144353526 0.0
1.16802128371 4.238862881 0.0
1.09587629216 4.3086676659 0.0
1.35920470355 4.35666960471 0.0
0.240795296449 4.35666960471 0.0
0.504003580654 4.30815758118 0.0
0.579942709371 4.5342075073 0.0
0.875915224914 4.12815792528 0.0
0.426503136644 4.40717733008 0.0
0.57541416445 4.30365301522 0.0
0.683877978289 4.33161848113 0.0
0.888061695889 4.44633509246 0.0
0.26012287522 4.49859249103 0.0
1.33987712478 4.49859249103 0.0
0.801393572636 4.37060096582 0.0
0.558460082533 4.72496728209 0.0
1.1741923373 4.41132830101 0.0
0.83220012886 4.12779415912 0.0
1.02815069622 4.30053276509 0.0
0.948308583502 4.2880204454 0.0
0.846588933095 4.50834596945 0.0
0.343666800815 4.43485820652 0.0
1.25632767671 4.43480360053 0.0
0.97849585731 4.47031535602 0.0
1.10170977548 4.51507265998 0.0
0.662193131828 4.26809398492 0.0
0.400503668388 4.26881657105 0.0
1.20117145985 4.26130427377 0.0
0.350957892513 4.21796558019 0.0
1.24904210749 4.21796558019 0.0
0.771964652188 4.18905379403 0.0
0.932165148285 4.72736281402 0.0
0.373672364094 4.73321357765 0.0
0.760245937722 4.28409350779 0.0
0.848718469252 4.05767763075 0.0
1.23385612561 4.7358294747 0.0
0.846421485813 4.28065918421 0.0
0.651597058631 4.13043284014 0.0
0.650489852552 4.72138045504 0.0
0.58457834847 4.16375088261 0.0
0.48701309933 4.18859927013 0.0
0.708495738406 4.58856947756 0.0
1.11203398596 4.18878062515 0.0
0.54865558244 4.10250047869 0.0
1.05126102377 4.10234629471 0.0
0.300013757486 4.26259646442 0.0
1.29998624251 4.26259646442 0.0
0.9465032388 4.12718070354 0.0
0.708587583337 4.14146095907 0.0
0.973348904468 4.19537871864 0.0
0.628721855632 4.19538356945 0.0
0.380175010018 4.34021880077 0.0
0.662092932411 4.45899041267 0.0
1.05133526787 4.22221992007 0.0
0.528087045766 4.64327882187 0.0
1.22233124543 4.33521693908 0.0
1.19001193434 4.36273586668 0.0
0.853024099244 4.39544003492 0.0
0.542800296246 4.22324366905 0.0
0.247706318737 4.45239119247 0.0
1.35229368126 4.45239119247 0.0
0.599153768578 4.12953797005 0.0
1.01616570494 4.16227683178 0.0
0.744705786938 4.40569544575 0.0
1.31929001115 4.73702550052 0.0
0.777615355331 4.15113602511 0.0
1.33132411895 4.60631378639 0.0
0.265621610877 4.60975488866 0.0
0.532023338888 4.15374454388 0.0
1.0697792195 4.15241429251 0.0
0.286371037106 4.73010312914 0.0
0.497725885905 4.50153668256 0.0
0.46053455822 4.31587947599 0.0
0.433799237968 4.54629400991 0.0
0.388624781906 4.65094200004 0.0
0.554823673752 4.40451940232 0.0
1.1421595646 4.31818301431 0.0
1.14760043966 4.61655103139 0.0
1.21258698805 4.65320200685 0.0
1.16279096046 4.53292621409 0.0
0.995762647814 4.12508772517 0.0
0.456229040627 4.61456685246 0.0
0.707289391156 4.21520271873 0.0
0.763036833302 4.74285445535 0.0
0.78386198569 4.49787013126 0.0
[...]
POINT_DATA 999
VECTORS Displacement float
0.117200703053 -0.196165582944 0
0.122651468453 -0.196234986151 0
0.12 -0.2 0
0.12 -0.2 0
0.122891485589 -0.196218516671 0
0.123122695231 -0.196196942907 0
0.123330649119 -0.196171986801 0
0.123508516912 -0.196163691934 0
0.123619702485 -0.196181732414 0
0.12369328236 -0.196236575405 0
0.12366967543 -0.196336826064 0
0.123541682231 -0.196492007876 0
0.123293637269 -0.196743541574 0
0.122873965583 -0.19711600469 0
0.122260887551 -0.197675501212 0
0.121371166991 -0.198522826896 0
0.12 -0.2 0
0.12 -0.2 0
0.12 -0.2 0
0.12 -0.2 0
0.12 -0.2 0
0.12 -0.2 0
0.12 -0.2 0
0.12 -0.2 0
0.12 -0.2 0
0.12 -0.2 0
0.12 -0.2 0
0.12 -0.2 0
0.12 -0.2 0
0.12 -0.2 0
0.12 -0.2 0
0.12 -0.2 0
0.12 -0.2 0
0.118620458812 -0.198511020862 0
0.117716318075 -0.197650327454 0
0.117061040637 -0.197078650843 0
0.116642231994 -0.196693939751 0
0.116384551173 -0.196435190507 0
0.116242856725 -0.196275518731 0
0.116207767728 -0.196173568918 0
0.116271401736 -0.196116980896 0
0.11637351056 -0.196097436628 0
0.116542921989 -0.196104446009 0
0.116743022556 -0.19612845514 0
0.116967068007 -0.196149415416 0
0.117393964772 -0.196038841686 0
0.117606851904 -0.195896722282 0
0.117837008123 -0.195730777934 0
0.118089102575 -0.195541503867 0
0.118361974388 -0.195320763676 0
0.118647560202 -0.195063248151 0
0.118950320322 -0.19477179538 0
0.119282763149 -0.194442698404 0
0.119641677743 -0.194046346415 0
0.120007975847 -0.193614407163 0
0.120401297102 -0.193112873915 0
0.120843161905 -0.192530451928 0
0.121308576245 -0.191822221797 0
0.121838518193 -0.190924396016 0
0.122350737388 -0.189821912891 0
0.122766355731 -0.188729697585 0
0.123080904276 -0.1876675502 0
0.123313861171 -0.186610835736 0
0.123471097102 -0.185617033855 0
0.123566962406 -0.184643820209 0
0.123605341888 -0.18372625065 0
0.12357604428 -0.182846915783 0
0.123506333443 -0.182007457634 0
0.12336399302 -0.181263334941 0
0.123187546005 -0.180584855937 0
0.122966851754 -0.179955464367 0
0.122719717206 -0.179392976389 0
0.122437537003 -0.178891446829 0
0.122138221213 -0.178454985672 0
0.121806296557 -0.178074925367 0
0.121458616915 -0.177764869378 0
0.121086258957 -0.177515566544 0
0.120707225985 -0.177327953154 0
0.120313543311 -0.177202123416 0
0.119875508255 -0.177082697291 0
0.119450790332 -0.177158459794 0
0.119050179994 -0.177309434429 0
0.118670683618 -0.177500239124 0
0.118306167559 -0.177752677007 0
0.1179581882 -0.178065148698 0
0.117626780472 -0.17844510552 0
0.117318323224 -0.178891484963 0
0.117046261706 -0.179387294174 0
0.116802458536 -0.179954116155 0
0.116585233992 -0.18058761206 0
0.116414323742 -0.181273863488 0
0.116282494142 -0.182026189207 0
0.116195116568 -0.182813293816 0
0.11616237069 -0.183693801358 0
0.116201764131 -0.184618566127 0
0.11629472689 -0.18558751059 0
0.116455932919 -0.186591119375 0
0.116682361039 -0.187636225957 0
0.116998320921 -0.188707058302 0
0.117413567227 -0.189800960018 0
0.117928781657 -0.190912165754 0
0.118462981361 -0.191818324446 0
0.11893938825 -0.192543511431 0
0.119389737697 -0.193135320073 0
0.119790248343 -0.193643789018 0
0.120163052486 -0.194081417175 0
0.120528186461 -0.194482905985 0
0.120866423237 -0.194816380122 0
0.121174639002 -0.195111871756 0
0.121465524929 -0.195373153143 0
0.121743486566 -0.195597377686 0
0.122000522153 -0.195790041908 0
0.122235543574 -0.195959336609 0
0.122453287733 -0.196104799634 0
0.122339713566 -0.192469352353 0
0.117607640805 -0.192452852644 0
0.119964695458 -0.18591584869 0
0.118931598546 -0.186218968047 0
0.123089997249 -0.19396854985 0
0.116779392994 -0.19395303565 0
0.120833591593 -0.186045642777 0
0.120009959602 -0.181847895359 0
0.119762062448 -0.181736798943 0
0.121744785115 -0.190286661772 0
0.118108494583 -0.190202495727 0
0.119829680842 -0.193771706789 0
0.117129824612 -0.196281030406 0
0.122794207367 -0.196386466722 0
0.120469918422 -0.182869220135 0
0.119927337259 -0.186333126388 0
0.119236136048 -0.182812872086 0
0.119873913133 -0.18631860307 0
0.117710950454 -0.193213956349 0
0.122128076877 -0.193219021351 0
0.118796592772 -0.189050099279 0
0.122942427732 -0.195194050192 0
0.116918760118 -0.195149147157 0
0.119960063421 -0.179656533113 0
0.121161689318 -0.188783944255 0
0.121210644653 -0.195756539553 0
0.120906505146 -0.180414686974 0
0.118624795036 -0.195801274137 0
0.119589675236 -0.189302947239 0
0.118865350309 -0.180388537367 0
0.120210450205 -0.18929168199 0
0.123504155707 -0.195550946222 0
0.116390352411 -0.195509260677 0
0.122054740775 -0.189844324303 0
0.117761835756 -0.189976483526 0
0.119384136345 -0.185185892726 0
0.120431719152 -0.184984601079 0
0.120076719673 -0.189949633178 0
0.121361217377 -0.183867437667 0
0.118436757067 -0.183843278274 0
0.1199105776 -0.183297143136 0
0.118663744826 -0.192839659502 0
0.119303514711 -0.179154172411 0
0.118863195357 -0.192002031283 0
0.120951133363 -0.192012924595 0
0.121115695004 -0.192956511933 0
0.122644314545 -0.191902896859 0
0.122976043495 -0.194007784484 0
0.116873785277 -0.194231617057 0
0.117220489686 -0.191882061689 0
0.1206545366 -0.179077365857 0
0.122299806247 -0.194765570979 0
0.117544119539 -0.194724177488 0
0.11855262342 -0.187916793805 0
0.119645870687 -0.183809293998 0
0.121264007069 -0.187919040198 0
0.122149110531 -0.195483561071 0
0.117604878254 -0.19517529116 0
0.121626299557 -0.181234850054 0
0.120102604708 -0.183626516994 0
0.116575599197 -0.196462163544 0
0.117613277757 -0.197784440267 0
0.123352490788 -0.196493400226 0
0.122375863668 -0.197788246692 0
0.118118292506 -0.181192762758 0
0.121056249367 -0.186895356064 0
0.118332078031 -0.19776445974 0
0.118726925025 -0.186875924785 0
0.121481018142 -0.198103211268 0
0.120221796875 -0.196949292296 0
0.119641830509 -0.185068153296 0
0.118410431636 -0.188293421606 0
0.118355199883 -0.193885346483 0
0.121471454754 -0.193917151854 0
0.120061589273 -0.18492487977 0
0.119754748928 -0.178371066046 0
0.12140597048 -0.188090344012 0
0.119496122625 -0.1965259586 0
0.119865016181 -0.181242781498 0
0.117052614192 -0.194204684288 0
0.122813393633 -0.194229000949 0
0.123302329305 -0.195359755908 0
0.123396422296 -0.195714417198 0
0.116482258835 -0.19566429974 0
0.119426743294 -0.187065993861 0
0.120215162033 -0.182176372612 0
0.122359728626 -0.192152142151 0
0.116582226386 -0.195400971876 0
0.120543025904 -0.187011855822 0
0.117479442322 -0.192033970862 0
0.118930730891 -0.188372885158 0
0.119742288389 -0.191246210473 0
0.120056185174 -0.191244985835 0
0.119229279787 -0.190830177222 0
0.121893647592 -0.190346679584 0
0.1209352771 -0.188513651732 0
0.117341459797 -0.195380733701 0
0.122507081809 -0.195432367627 0
0.12022915091 -0.180352304035 0
0.119459673851 -0.181940136053 0
0.118664141593 -0.179142356479 0
0.121684972336 -0.179977354529 0
0.122200283992 -0.182069905679 0
0.118063852176 -0.180012999172 0
0.117546136688 -0.182147500488 0
0.118147669608 -0.190384388838 0
0.121018975643 -0.18866839722 0
0.121975510076 -0.185208997681 0
0.117253552118 -0.192130561812 0
0.118760657787 -0.188648490532 0
0.117800347958 -0.185187289624 0
0.119747049242 -0.183443000985 0
0.120599787541 -0.194687712998 0
0.120049157066 -0.183283152678 0
0.121863386626 -0.193734551576 0
0.122545433531 -0.191828688843 0
0.121086072382 -0.197959620437 0
0.116649325226 -0.19489027306 0
0.123223849366 -0.19493571947 0
0.120304908648 -0.178235875628 0
0.118561706954 -0.190664135874 0
0.121289660241 -0.179134621834 0
0.121232795819 -0.190656834159 0
0.121973631208 -0.189754095085 0
0.123021622144 -0.195766361564 0
0.116841044972 -0.195709841302 0
0.117872227702 -0.189750041005 0
0.11799293797 -0.193844959329 0
0.119385791343 -0.180420157183 0
0.116881083883 -0.19325835656 0
0.118345930959 -0.187990028427 0
0.118977155759 -0.187151304863 0
0.120829909125 -0.190432666079 0
0.116309392674 -0.196120584408 0
0.123596441551 -0.196165928052 0
0.119942974686 -0.187810232496 0
0.118985105298 -0.198143528041 0
0.123008715416 -0.193351751273 0
0.11967547358 -0.180104834851 0
0.121487717583 -0.187973732439 0
0.120861444879 -0.186203330727 0
0.120416755399 -0.192107115629 0
0.116522207653 -0.194887853328 0
0.123366801351 -0.194914603476 0
0.121685304204 -0.191828455043 0
0.122566864005 -0.194223102415 0
0.119171747659 -0.185448212018 0
0.118011250075 -0.192043417486 0
0.121692355031 -0.192035111215 0
0.119039318051 -0.193276223875 0
0.120774675076 -0.193300676479 0
0.119912534051 -0.181988106972 0
0.120566637123 -0.197971789955 0
0.118655254301 -0.198707649074 0
0.119669741771 -0.185089887168 0
0.119124904809 -0.178199957183 0
0.121297479403 -0.198761701493 0
0.120192830864 -0.185004202069 0
0.120848984771 -0.181513561515 0
0.119304995166 -0.197872850203 0
0.120469370318 -0.183950267689 0
0.119869735721 -0.187721311401 0
0.119190090546 -0.194474681722 0
0.119928612055 -0.187669763818 0
0.12238030169 -0.18350911137 0
0.117386163423 -0.183485305246 0
0.118118376142 -0.194646037322 0
0.121713472282 -0.19468780758 0
0.118890732588 -0.181389237175 0
0.120372457671 -0.180987196167 0
0.119944575348 -0.183856569743 0
0.119860570389 -0.183821762923 0
0.117112736178 -0.19329855015 0
0.118579988824 -0.191151114989 0
0.120558346157 -0.186470692228 0
0.118204759264 -0.196616203778 0
0.122704051264 -0.193321967163 0
0.122841142032 -0.19293963394 0
0.120447545046 -0.188708145783 0
0.119216295414 -0.186678473039 0
0.116295777165 -0.19592193611 0
0.123597164637 -0.195972129278 0
0.121197876398 -0.182654296913 0
0.119286349514 -0.183916819451 0
0.119393324562 -0.189037003639 0
0.121431512326 -0.19874895117 0
0.119986408698 -0.180786708626 0
0.12307016255 -0.19706829207 0
0.116890263093 -0.197071086152 0
0.120850027829 -0.18528896505 0
0.118888962194 -0.185303455847 0
0.118467514308 -0.19865625144 0
0.11730047067 -0.193946266418 0
0.117586662102 -0.191010607385 0
0.117094559604 -0.195462622796 0
0.117706361354 -0.197437235033 0
0.117683548992 -0.190974025647 0
0.122295413043 -0.191124411457 0
0.122303310291 -0.196556931364 0
0.122232932709 -0.197486072666 0
0.12286840399 -0.195209497273 0
0.118513264461 -0.182396944465 0
0.11764805082 -0.19648937046 0
0.119740516797 -0.183251769664 0
0.119841776573 -0.198226359955 0
0.119792490659 -0.191756276206 0
0.120948083872 -0.187298850971 0
0.120703642265 -0.190228236761 0
0.120032288358 -0.183097223966 0
0.119078681763 -0.190215278321 0
0.123472052799 -0.195854505172 0
0.120895370246 -0.178438632215 0
0.117749417729 -0.194063241605 0
0.122089933396 -0.194095969068 0
0.1196469863 -0.192482806048 0
0.120155889237 -0.192496504662 0
0.118096964131 -0.192125237043 0
0.116982233698 -0.192984976371 0
0.120249837579 -0.179131300282 0
0.119143470159 -0.193026152316 0
0.118280125986 -0.192983005568 0
0.121547645329 -0.193001173786 0
0.116444569463 -0.195776205862 0
0.123224984751 -0.194473304528 0
0.12053128559 -0.185007661057 0
0.117755077791 -0.195190568966 0
0.122084136636 -0.195239993188 0
0.121601649809 -0.197058810116 0
0.116682217791 -0.194443778897 0
0.117113563051 -0.195750619027 0
0.122740911795 -0.1958093264 0
0.1222237035 -0.180772765282 0
0.119913672544 -0.182311568818 0
0.122883211281 -0.196946305499 0
0.11704814033 -0.196921963447 0
0.118359471617 -0.188991759001 0
0.120683861133 -0.179947693235 0
0.119926015478 -0.184307505151 0
0.119667358804 -0.179219218032 0
0.122366857348 -0.190848064719 0
0.121486706278 -0.189042487033 0
0.118743596061 -0.186888056455 0
0.118164459779 -0.179110707817 0
0.117593621106 -0.180810225088 0
0.122715296217 -0.193307009549 0
0.117097567334 -0.194750247109 0
0.122758792418 -0.194788392129 0
0.121238162666 -0.194261928378 0
0.117481559295 -0.190872223971 0
0.118878823526 -0.186625825736 0
0.119525012645 -0.184976868129 0
0.11856627559 -0.194230826171 0
0.119841960555 -0.195874685586 0
0.12187746023 -0.186967287821 0
0.117897462262 -0.186944674235 0
0.118785324591 -0.189517609293 0
0.12094311908 -0.189470713039 0
0.116416292991 -0.196445681993 0
0.123505987732 -0.196487834248 0
0.119269893886 -0.185182518468 0
0.120982697787 -0.186774052441 0
0.120109536796 -0.185254456168 0
0.121684172517 -0.195442417933 0
0.118744640231 -0.178454133999 0
0.121317325843 -0.190496816358 0
0.123259226721 -0.195904400208 0
0.116611887536 -0.195846006571 0
0.119330388829 -0.190540395584 0
0.119070030149 -0.179691533704 0
0.120473969423 -0.190535559712 0
0.119475211522 -0.184330546573 0
0.120686836977 -0.196369180271 0
0.120848880599 -0.198858039154 0
0.12222517206 -0.190948371908 0
0.118007868153 -0.189508087351 0
0.123249673971 -0.195324465442 0
0.116623468695 -0.195281453103 0
0.123167353918 -0.196157122006 0
0.116744029237 -0.19609683619 0
0.119312496207 -0.181054546296 0
0.121990333972 -0.19135672756 0
0.121804631186 -0.179170316968 0
0.119979185154 -0.177783124648 0
0.119743129123 -0.181069367091 0
0.116999092024 -0.193219059999 0
0.117854227128 -0.191503690383 0
0.11887354972 -0.193940369897 0
0.120943875377 -0.193973415399 0
0.120222289865 -0.187193936317 0
0.120272906415 -0.184060004139 0
0.119454688101 -0.177958873857 0
0.122390391284 -0.197843117361 0
0.117317678415 -0.19385328471 0
0.122514946862 -0.193882225905 0
0.121704008535 -0.189044383105 0
0.11738173592 -0.197624697364 0
0.119185201931 -0.198927282402 0
0.122796904862 -0.192501479551 0
0.118084274685 -0.195583380497 0
0.120189528854 -0.182823037558 0
0.121509450301 -0.189070047392 0
0.121663338401 -0.18866147531 0
0.120332733815 -0.184909535666 0
0.121180639803 -0.18702978338 0
0.118459261284 -0.189133307073 0
0.116824304986 -0.195173801988 0
0.121313358896 -0.180776574081 0
0.121061974924 -0.182116966583 0
0.116859996056 -0.194735731452 0
0.123003275361 -0.194787148439 0
0.118552355545 -0.194423936127 0
0.121271039979 -0.194463294221 0
0.119751961998 -0.182209034158 0
0.122230055422 -0.192643536086 0
0.122262874802 -0.193682841596 0
0.11962410014 -0.182845559561 0
0.118147176453 -0.188725230873 0
0.119445583917 -0.185803166599 0
0.117386940326 -0.192869856861 0
0.117062993725 -0.195467305457 0
0.122793039469 -0.195519518692 0
0.120238775718 -0.198418873752 0
0.120494483644 -0.186349989495 0
0.120458865297 -0.1879616391 0
0.117087703214 -0.192472585186 0
0.120442235891 -0.185756511412 0
0.118428079122 -0.180750719991 0
0.117278573845 -0.192914686909 0
0.120519405862 -0.187184967615 0
0.12087926178 -0.199064978271 0
0.122767496213 -0.182629287394 0
0.119338696621 -0.187951834402 0
0.119142550558 -0.19618418256 0
0.120062629815 -0.181063940924 0
0.119384069183 -0.186456534403 0
0.11978503926 -0.184071781793 0
0.122723287691 -0.184237813051 0
0.116961892069 -0.182622803494 0
0.119335425692 -0.187185494219 0
0.11704790415 -0.184211468121 0
0.119877411131 -0.180412722615 0
0.120048762773 -0.184008126305 0
0.120048891445 -0.178689960484 0
0.123513412172 -0.195959987415 0
0.116370780671 -0.195904558658 0
0.122670266369 -0.181164830939 0
0.122322858418 -0.180043066573 0
0.119710684017 -0.198786864366 0
0.117468184013 -0.180037373444 0
0.117113419427 -0.181203426987 0
0.122541844601 -0.186087505353 0
0.122042650739 -0.187928785627 0
0.119977590644 -0.182409841322 0
0.117230856938 -0.18606402811 0
0.11772820769 -0.187904072325 0
0.123144226302 -0.194839919098 0
0.121423358535 -0.196600898524 0
0.119750385272 -0.186902415274 0
0.120712287687 -0.177930904117 0
0.1185462101 -0.179688683441 0
0.121326655433 -0.178382275392 0
0.12057286542 -0.181251899896 0
0.122906664375 -0.193851599374 0
0.123245451832 -0.195626467403 0
0.116625789126 -0.195575693419 0
0.117631896308 -0.193608112313 0
0.123401417245 -0.195312124348 0
0.116480992901 -0.195273558728 0
0.120310498049 -0.193596568624 0
0.119238798476 -0.185607675404 0
0.120515317364 -0.198765502614 0
0.119433869551 -0.178700840047 0
0.120729814994 -0.188392590131 0
0.120415967933 -0.19173459131 0
0.119372637593 -0.191735252805 0
0.116793322204 -0.194364780331 0
0.12071629677 -0.186134179345 0
0.118231741 -0.182963224529 0
0.120121267207 -0.183797663858 0
0.122508294528 -0.195631871411 0
0.119864458926 -0.182509834428 0
0.119109570561 -0.186047166042 0
0.121297606629 -0.179800109773 0
0.119903736696 -0.182148942259 0
0.116703662384 -0.19403674536 0
0.119019014011 -0.189763943767 0
0.119482572713 -0.180002001003 0
0.119626423363 -0.190223271234 0
0.119064466387 -0.187893401783 0
0.121786505428 -0.184301215729 0
0.120017734278 -0.190121207516 0
0.119775266594 -0.190110777857 0
0.117992665027 -0.184283240331 0
0.12020465051 -0.186084419649 0
0.120384892659 -0.179610423421 0
0.12186783091 -0.183094926952 0
0.123454566191 -0.195403935628 0
0.116447574569 -0.195346533768 0
0.11919013938 -0.199138009644 0
0.119619718768 -0.183791664635 0
0.123174226857 -0.194033379305 0
0.12014284911 -0.179768818071 0
0.118292192197 -0.17859741676 0
0.117164729561 -0.195117422468 0
0.122688330936 -0.195163354298 0
0.117540596988 -0.195615448321 0
0.122303242988 -0.195672176999 0
0.119048662518 -0.179112329764 0
0.117201345915 -0.192283240908 0
0.121612168294 -0.181984357673 0
0.123086342401 -0.19579112652 0
0.120575759585 -0.185907072905 0
0.118630029522 -0.181702109086 0
0.12307425198 -0.194396939917 0
0.116971256359 -0.195904903549 0
0.122887308535 -0.195967075746 0
0.120704656579 -0.193185799906 0
0.121976772646 -0.191560352455 0
0.121229172724 -0.185826194116 0
0.117395419232 -0.194336814702 0
0.122451970824 -0.194371018802 0
0.118450634279 -0.19158123188 0
0.119855899983 -0.182876594991 0
0.121327962139 -0.191612306951 0
0.12057958663 -0.185199631598 0
0.120559835871 -0.178547267055 0
0.117490004313 -0.191077099686 0
0.118560628603 -0.185835941987 0
0.119238667178 -0.191366025862 0
0.120568589307 -0.191368019841 0
0.121573005243 -0.193096888441 0
0.118503808194 -0.1893565274 0
0.119119296056 -0.199242276706 0
0.118143461348 -0.195028077357 0
0.121687939012 -0.19507566807 0
0.120859865166 -0.179384054116 0
0.12134750551 -0.189519558069 0
0.118426944144 -0.189501016042 0
0.119599323927 -0.184498279386 0
0.119941360401 -0.182938470628 0
0.119355339645 -0.19858857926 0
0.119327552237 -0.188697404739 0
0.118888722024 -0.191725676762 0
0.12259752193 -0.192072773495 0
0.120444729966 -0.190834838099 0
0.120481059488 -0.188742472899 0
0.120226100314 -0.184374057515 0
0.123510525346 -0.195706174374 0
0.116377060532 -0.195661207246 0
0.11879736127 -0.187864508008 0
0.118001788789 -0.193559059185 0
0.121828829009 -0.193574953297 0
0.121922828096 -0.190026318702 0
0.118572247411 -0.193374764375 0
0.121231859046 -0.193384601733 0
0.116256770547 -0.196076392439 0
0.123643716799 -0.196127831189 0
0.118673326768 -0.186976633149 0
0.120944412653 -0.197214937889 0
0.122934571279 -0.19330843981 0
0.120817808054 -0.191842862032 0
0.121338054802 -0.189433267632 0
0.119934752172 -0.182537148029 0
0.119615636318 -0.185661398395 0
0.117737339824 -0.179355206761 0
0.121999984966 -0.192696898998 0
0.123252432193 -0.194527699303 0
0.116625456384 -0.194504243541 0
0.117664448838 -0.1922386088 0
0.117917726718 -0.190016682023 0
0.120260305323 -0.184306518421 0
0.118573836104 -0.19017111691 0
0.119565917737 -0.181356894048 0
0.121529833807 -0.189922129459 0
0.120946549603 -0.189492093806 0
0.119616656614 -0.194728057438 0
0.121049791904 -0.187991372189 0
0.121827914587 -0.180545281636 0
0.121777050453 -0.188952232316 0
0.122846766804 -0.192708919826 0
0.120289023888 -0.1957014153 0
0.118225985097 -0.188539763341 0
0.119590558698 -0.18797225333 0
0.118920275337 -0.19735830999 0
0.118259382161 -0.193127348007 0
0.118511261979 -0.187650150768 0
0.119611843962 -0.183946938833 0
0.118647543983 -0.188113673292 0
0.117833892483 -0.19149009523 0
0.117946296254 -0.180536408639 0
0.117768334292 -0.181525271013 0
0.116777762664 -0.195949324645 0
0.123086809538 -0.196012159214 0
0.123593118866 -0.195925985189 0
0.116306337584 -0.195884643964 0
0.120286787417 -0.177710141089 0
0.12019822151 -0.181028425001 0
0.121264538382 -0.187665251363 0
0.119784547159 -0.182785005482 0
0.122024201011 -0.194615014017 0
0.118555055964 -0.197714436386 0
0.123024705796 -0.19348521087 0
0.120158410073 -0.183702273559 0
0.120003206421 -0.185805136951 0
0.121106194291 -0.187236286515 0
0.118413173435 -0.190169366223 0