# vtk DataFile Version 2.0
Generated with Solid Solver
ASCII
DATASET UNSTRUCTURED_GRID
POINTS 999 float 
0.2 4.325 0.0
1.4 4.325 0.0
1.4 4.825 0.0
0.2 4.825 0.0
1.4 4.34523264049 0.0
1.4 4.36751203886 0.0
1.4 4.39204525371 0.0
1.4 4.4190602782 0.0
1.4 4.44880817466 0.0
1.4 4.48156541084 0.0
1.4 4.51763640748 0.0
1.4 4.5573564007 0.0
1.4 4.60109451608 0.0
1.4 4.64925723872 0.0
1.4 4.70229217343 0.0
1.4 4.76069218095 0.0
1.33333333333 4.825 0.0
1.26666666667 4.825 0.0
1.2 4.825 0.0
1.13333333333 4.825 0.0
1.06666666667 4.825 0.0
1.0 4.825 0.0
0.933333333334 4.825 0.0
0.866666666668 4.825 0.0
0.800000000001 4.825 0.0
0.733333333334 4.825 0.0
0.666666666668 4.825 0.0
0.600000000001 4.825 0.0
0.533333333334 4.825 0.0
0.466666666667 4.825 0.0
0.4 4.825 0.0
0.333333333334 4.825 0.0
0.266666666667 4.825 0.0
0.2 4.76069218095 0.0
0.2 4.70229217343 0.0
0.2 4.64925723872 0.0
0.2 4.60109451608 0.0
0.2 4.5573564007 0.0
0.2 4.51763640748 0.0
0.2 4.48156541084 0.0
0.2 4.44880817466 0.0
0.2 4.4190602782 0.0
0.2 4.39204525371 0.0
0.2 4.36751203886 0.0
0.2 4.34523264049 0.0
0.212131543907 4.30926329506 0.0
0.224675715302 4.29385348652 0.0
0.23762369102 4.27878141198 0.0
0.250966423879 4.26405760374 0.0
0.264694484585 4.24969246611 0.0
0.278798324214 4.23569599189 0.0
0.293267939266 4.22207810803 0.0
0.308093289028 4.20884826442 0.0
0.323263842145 4.19601585877 0.0
0.338769084145 4.18358978512 0.0
0.354597997314 4.17157887342 0.0
0.37073960121 4.15999145532 0.0
0.387182441982 4.14883575334 0.0
0.403915091795 4.13811952025 0.0
0.420925712897 4.12785033813 0.0
0.438202430937 4.11803537461 0.0
0.455733079095 4.10868154223 0.0
0.473505374364 4.09979539439 0.0
0.491506842655 4.09138316882 0.0
0.509724826085 4.0834507802 0.0
0.528146580414 4.07600377808 0.0
0.546759103951 4.06904741762 0.0
0.56554943677 4.06258654322 0.0
0.584504260001 4.05662573401 0.0
0.60361041518 4.0511691282 0.0
0.622854334779 4.04622060039 0.0
0.642222678753 4.04178358113 0.0
0.661701681839 4.03786122392 0.0
0.681277836375 4.03445624851 0.0
0.700937245817 4.03157107217 0.0
0.720666255912 4.02920769845 0.0
0.740450894784 4.02736780161 0.0
0.76027736978 4.02605266363 0.0
0.780131702711 4.02526321235 0.0
0.799999999998 4.025 0.0
0.819868297285 4.02526321235 0.0
0.839722630216 4.02605266363 0.0
0.859549105212 4.02736780161 0.0
0.879333744085 4.02920769845 0.0
0.89906275418 4.03157107217 0.0
0.918722163621 4.03445624851 0.0
0.938298318157 4.03786122392 0.0
0.957777321244 4.04178358113 0.0
0.977145665218 4.04622060039 0.0
0.996389584817 4.0511691282 0.0
1.01549574 4.05662573401 0.0
1.03445056323 4.06258654322 0.0
1.05324089605 4.06904741762 0.0
1.07185341958 4.07600377808 0.0
1.09027517391 4.0834507802 0.0
1.10849315734 4.09138316882 0.0
1.12649462563 4.09979539439 0.0
1.1442669209 4.10868154222 0.0
1.16179756906 4.1180353746 0.0
1.1790742871 4.12785033813 0.0
1.1960849082 4.13811952024 0.0
1.21281755802 4.14883575334 0.0
1.22926039879 4.15999145532 0.0
1.24540200269 4.17157887342 0.0
1.26123091585 4.18358978512 0.0
1.27673615785 4.19601585877 0.0
1.29190671097 4.20884826442 0.0
1.30673206073 4.22207810803 0.0
1.32120167579 4.23569599189 0.0
1.33530551541 4.24969246611 0.0
1.34903357612 4.26405760374 0.0
1.36237630898 4.27878141198 0.0
1.3753242847 4.29385348652 0.0
1.38786845609 4.30926329506 0.0
1.05632730172 4.46025283906 0.0
0.549964048968 4.4630053958 0.0
0.806135520676 4.31186690218 0.0
0.603895783049 4.26079310371 0.0
1.22984770884 4.38318704125 0.0
0.3703382852 4.38423552752 0.0
0.995322815839 4.25565031136 0.0
0.728315816804 4.1765935937 0.0
0.872128173905 4.17288724072 0.0
1.14059401893 4.27298468684 0.0
0.461553191009 4.27181671009 0.0
0.784706775856 4.56821390922 0.0
0.398287125272 4.57945970538 0.0
1.20625306554 4.58334743514 0.0
0.624100842742 4.1589824436 0.0
0.5257453845 4.18811776279 0.0
0.978502430793 4.15488737058 0.0
1.07419209812 4.18825154482 0.0
0.364313698077 4.28677035763 0.0
1.23509538257 4.28681716733 0.0
0.68124123937 4.39284548972 0.0
1.31679378691 4.35012066749 0.0
0.283206213094 4.35012066749 0.0
0.791498533126 4.11467141721 0.0
0.931481076052 4.3801344917 0.0
0.966719065571 4.62778042839 0.0
0.684451667517 4.11068036752 0.0
0.618335406951 4.62686910993 0.0
0.450982331762 4.19686171732 0.0
0.915674266355 4.10995633851 0.0
1.14900051594 4.19689012964 0.0
1.30193709687 4.4481448133 0.0
0.298574667609 4.44816296922 0.0
1.05734787542 4.34990107617 0.0
0.539273225177 4.35252599628 0.0
0.709896798149 4.27721026287 0.0
0.895708916005 4.26924194389 0.0
0.813273511364 4.43835766235 0.0
0.559289631452 4.13230879113 0.0
1.04001407307 4.13281539633 0.0
0.801161810585 4.23146244955 0.0
0.665113819616 4.52056650186 0.0
0.852577362173 4.09111846388 0.0
0.390256727869 4.2242806298 0.0
1.20974450479 4.22428104599 0.0
0.921542541183 4.52778058719 0.0
1.14030889032 4.36437344809 0.0
1.15600477272 4.46808538305 0.0
0.435243219029 4.4750581257 0.0
0.462045157798 4.36654654286 0.0
0.735806812738 4.08472269746 0.0
1.30082934537 4.29793772796 0.0
0.299170654625 4.29793772796 0.0
0.533651712118 4.26265983853 0.0
0.666130919144 4.21652131559 0.0
1.0676097303 4.26179469382 0.0
1.08054433577 4.58530946155 0.0
0.506773767255 4.56568295079 0.0
0.626745312844 4.10124420826 0.0
0.933845304214 4.2106954732 0.0
0.293717639664 4.55175000185 0.0
0.312505022079 4.66426411351 0.0
1.3058164124 4.55154930624 0.0
1.29054387065 4.66302765963 0.0
0.973467966326 4.09941619478 0.0
0.487935413164 4.15087084015 0.0
0.461549079751 4.68836834982 0.0
1.11203248746 4.15093503889 0.0
1.14453515393 4.70617370303 0.0
0.840217564202 4.68891146633 0.0
0.585347033288 4.20539048534 0.0
0.619177396637 4.34227576306 0.0
0.331644410315 4.24962190462 0.0
1.26835558968 4.24962190462 0.0
1.01536156978 4.19987473052 0.0
0.809331033562 4.07065709122 0.0
0.982321540791 4.33437358971 0.0
0.725600576914 4.66999651799 0.0
0.812291456186 4.16642942492 0.0
0.335887692543 4.33918235669 0.0
1.26344844681 4.34017131907 0.0
1.23449730504 4.49457441524 0.0
1.34334172095 4.40539551957 0.0
0.256658279045 4.40539551957 0.0
0.741646926828 4.34287908527 0.0
0.674799084703 4.16673768522 0.0
1.18647435526 4.30955189749 0.0
0.360563250283 4.49596479569 0.0
0.873716483853 4.33845499203 0.0
0.418704489949 4.31146264283 0.0
0.492670911224 4.22931614809 0.0
0.403480880356 4.19046776931 0.0
1.19651541215 4.1904686246 0.0
0.728649253738 4.46214546491 0.0
1.00883674467 4.40174664879 0.0
1.11035034557 4.23161841276 0.0
0.261968539765 4.3130079512 0.0
1.33803146023 4.3130079512 0.0
0.74649980488 4.1318354354 0.0
0.927597725248 4.1577597079 0.0
0.892956618256 4.07619338913 0.0
0.659794281787 4.07951387326 0.0
0.587663534405 4.09486537006 0.0
0.942353209926 4.07935300973 0.0
1.01493747319 4.09476013719 0.0
0.613130017774 4.41369803882 0.0
0.449373501074 4.15377191978 0.0
0.514840228377 4.12225850006 0.0
0.497057592 4.41333092106 0.0
1.15061382426 4.15379293084 0.0
1.08514419473 4.12228328152 0.0
0.745617635771 4.23098957592 0.0
0.87523452213 4.59853036549 0.0
0.855262884783 4.2258970831 0.0
1.01126200032 4.53280064162 0.0
1.09391916408 4.40632408872 0.0
1.04436265455 4.71482000827 0.0
0.314320181089 4.38773968607 0.0
1.28649331902 4.38743720145 0.0
0.771211579291 4.06316862024 0.0
0.432259099658 4.24006002157 0.0
0.698583889427 4.07144353526 0.0
1.16802128371 4.238862881 0.0
1.09587629216 4.3086676659 0.0
1.35920470355 4.35666960471 0.0
0.240795296449 4.35666960471 0.0
0.504003580654 4.30815758118 0.0
0.579942709371 4.5342075073 0.0
0.875915224914 4.12815792528 0.0
0.426503136644 4.40717733008 0.0
0.57541416445 4.30365301522 0.0
0.683877978289 4.33161848113 0.0
0.888061695889 4.44633509246 0.0
0.26012287522 4.49859249103 0.0
1.33987712478 4.49859249103 0.0
0.801393572636 4.37060096582 0.0
0.558460082533 4.72496728209 0.0
1.1741923373 4.41132830101 0.0
0.83220012886 4.12779415912 0.0
1.02815069622 4.30053276509 0.0
0.948308583502 4.2880204454 0.0
0.846588933095 4.50834596945 0.0
0.343666800815 4.43485820652 0.0
1.25632767671 4.43480360053 0.0
0.97849585731 4.47031535602 0.0
1.10170977548 4.51507265998 0.0
0.662193131828 4.26809398492 0.0
0.400503668388 4.26881657105 0.0
1.20117145985 4.26130427377 0.0
0.350957892513 4.21796558019 0.0
1.24904210749 4.21796558019 0.0
0.771964652188 4.18905379403 0.0
0.932165148285 4.72736281402 0.0
0.373672364094 4.73321357765 0.0
0.760245937722 4.28409350779 0.0
0.848718469252 4.05767763075 0.0
1.23385612561 4.7358294747 0.0
0.846421485813 4.28065918421 0.0
0.651597058631 4.13043284014 0.0
0.650489852552 4.72138045504 0.0
0.58457834847 4.16375088261 0.0
0.48701309933 4.18859927013 0.0
0.708495738406 4.58856947756 0.0
1.11203398596 4.18878062515 0.0
0.54865558244 4.10250047869 0.0
1.05126102377 4.10234629471 0.0
0.300013757486 4.26259646442 0.0
1.29998624251 4.26259646442 0.0
0.9465032388 4.12718070354 0.0
0.708587583337 4.14146095907 0.0
0.973348904468 4.19537871864 0.0
0.628721855632 4.19538356945 0.0
0.380175010018 4.34021880077 0.0
0.662092932411 4.45899041267 0.0
1.05133526787 4.22221992007 0.0
0.528087045766 4.64327882187 0.0
1.22233124543 4.33521693908 0.0
1.19001193434 4.36273586668 0.0
0.853024099244 4.39544003492 0.0
0.542800296246 4.22324366905 0.0
0.247706318737 4.45239119247 0.0
1.35229368126 4.45239119247 0.0
0.599153768578 4.12953797005 0.0
1.01616570494 4.16227683178 0.0
0.744705786938 4.40569544575 0.0
1.31929001115 4.73702550052 0.0
0.777615355331 4.15113602511 0.0
1.33132411895 4.60631378639 0.0
0.265621610877 4.60975488866 0.0
0.532023338888 4.15374454388 0.0
1.0697792195 4.15241429251 0.0
0.286371037106 4.73010312914 0.0
0.497725885905 4.50153668256 0.0
0.46053455822 4.31587947599 0.0
0.433799237968 4.54629400991 0.0
0.388624781906 4.65094200004 0.0
0.554823673752 4.40451940232 0.0
1.1421595646 4.31818301431 0.0
1.14760043966 4.61655103139 0.0
1.21258698805 4.65320200685 0.0
1.16279096046 4.53292621409 0.0
0.995762647814 4.12508772517 0.0
0.456229040627 4.61456685246 0.0
0.707289391156 4.21520271873 0.0
0.763036833302 4.74285445535 0.0
0.78386198569 4.49787013126 0.0
[...]
POINT_DATA 999
VECTORS Displacement float
0.399291701866 -0.0792731756036 0
0.400700544303 -0.0792788885994 0
0.4 -0.08 0
0.4 -0.08 0
0.400740572377 -0.0792751996325 0
0.400779609636 -0.0792696265532 0
0.400814442463 -0.079262360681 0
0.400843178209 -0.0792568426341 0
0.400858470811 -0.07925518374 0
0.400865370795 -0.0792595492538 0
0.400851355579 -0.0792719223779 0
0.400814242852 -0.0792946762602 0
0.40075035681 -0.0793370638898 0
0.400648586646 -0.0794052761786 0
0.400504617401 -0.0795142579148 0
0.400301548644 -0.0796880775443 0
0.4 -0.08 0
0.4 -0.08 0
0.4 -0.08 0
0.4 -0.08 0
0.4 -0.08 0
0.4 -0.08 0
0.4 -0.08 0
0.4 -0.08 0
0.4 -0.08 0
0.4 -0.08 0
0.4 -0.08 0
0.4 -0.08 0
0.4 -0.08 0
0.4 -0.08 0
0.4 -0.08 0
0.4 -0.08 0
0.4 -0.08 0
0.39969946779 -0.0796885788877 0
0.399495708716 -0.0795142499326 0
0.399345189877 -0.0794035523493 0
0.399245852022 -0.0793333872789 0
0.399181966746 -0.0792901017142 0
0.399143848717 -0.0792668676973 0
0.399129177786 -0.079254461247 0
0.399135619332 -0.079249964762 0
0.399150493638 -0.0792514791159 0
0.399178829886 -0.0792568573112 0
0.399213279792 -0.0792640149355 0
0.399251968309 -0.0792695184602 0
0.399324353067 -0.0792528006669 0
0.39936027898 -0.0792306475162 0
0.399399331309 -0.0792049943271 0
0.399442168127 -0.0791757655234 0
0.399488410214 -0.0791417630868 0
0.399536897064 -0.0791021466093 0
0.399587965818 -0.0790576453178 0
0.399643367776 -0.0790076687587 0
0.399701920287 -0.0789489323312 0
0.399761358959 -0.0788857921507 0
0.399823983119 -0.0788144495757 0
0.399890785977 -0.0787352555505 0
0.399958706999 -0.0786460643306 0
0.400029818839 -0.0785479853351 0
0.400103273647 -0.0784396685573 0
0.400180033981 -0.0783191678497 0
0.400257816038 -0.0781852075398 0
0.400341138056 -0.0780370618286 0
0.400424457459 -0.0778712288891 0
0.40051396926 -0.0776842088836 0
0.400601831729 -0.0774742677215 0
0.40070121241 -0.0772343313487 0
0.400796348306 -0.0769547685259 0
0.400905158677 -0.0766268444796 0
0.401031194194 -0.0760872227433 0
0.4010856791 -0.0755684520598 0
0.401082903892 -0.0751064525531 0
0.401035885023 -0.0746781643863 0
0.400959852119 -0.0743106311118 0
0.400845802435 -0.0739832895473 0
0.400710747596 -0.0737186756526 0
0.400546079629 -0.0735055937273 0
0.400373786036 -0.0733550324035 0
0.400190809245 -0.0732671293575 0
0.399984575961 -0.0732357395713 0
0.39979174795 -0.0732659901526 0
0.399604955559 -0.0733576416102 0
0.399431799359 -0.0735084538193 0
0.399275063708 -0.0737205122717 0
0.399139179557 -0.0739861372532 0
0.399022019293 -0.0743104159011 0
0.398938205029 -0.0746904825487 0
0.398901959107 -0.075111080292 0
0.398902116932 -0.0755769691041 0
0.398957310296 -0.0760944923374 0
0.399079838807 -0.0766303227079 0
0.399189103264 -0.0769594090672 0
0.3992857518 -0.0772379825837 0
0.399385283361 -0.077477666162 0
0.399473735301 -0.0776880198806 0
0.399563453481 -0.0778750804234 0
0.399646980835 -0.0780410031212 0
0.399730557472 -0.0781892467428 0
0.399808588792 -0.0783232763301 0
0.39988558367 -0.0784438506381 0
0.399959270648 -0.078552246662 0
0.400030601719 -0.0786504155231 0
0.40009873884 -0.0787397216694 0
0.400165771106 -0.0788190537353 0
0.400228646226 -0.0788905357916 0
0.400288354193 -0.0789538057452 0
0.400347159011 -0.079012640739 0
0.400402792521 -0.0790626904137 0
0.40045407648 -0.0791072667264 0
0.400502781217 -0.079146962918 0
0.400549231631 -0.0791810444133 0
0.400592274758 -0.0792103615678 0
0.400631535596 -0.0792361131859 0
0.400667672831 -0.0792583785337 0
0.400660345837 -0.0784492762279 0
0.399347125121 -0.0784369381985 0
0.400017852702 -0.076545817512 0
0.399452146586 -0.0770686563521 0
0.40079283247 -0.078884513491 0
0.399200591162 -0.0788816003267 0
0.40053165203 -0.077033015041 0
0.399824664918 -0.07528783038 0
0.400156247358 -0.0752531463628 0
0.40060499605 -0.0782718244486 0
0.399388984641 -0.0782510579699 0
0.399960898646 -0.0785995323094 0
0.399319304243 -0.0792709634856 0
0.400673193424 -0.0792915214143 0
0.399751053691 -0.0762415122077 0
0.399663599233 -0.0775725919665 0
0.400213391756 -0.0762624001727 0
0.400327384915 -0.0775750112384 0
0.399370341078 -0.078797858595 0
0.40062122403 -0.0787993626551 0
0.399596371054 -0.0775089213176 0
0.400752941145 -0.0791085687229 0
0.399239845032 -0.0791038358806 0
0.399996925724 -0.0742886651354 0
0.400437791105 -0.0774654806669 0
0.400322646073 -0.0790858710966 0
0.400055690124 -0.0749976545144 0
0.399647770255 -0.0790996694375 0
0.39967420857 -0.0782401174843 0
0.399926458408 -0.0749949426878 0
0.400316135423 -0.0782440575725 0
0.400844442275 -0.0791560745748 0
0.399150182277 -0.0791515128867 0
0.400683604893 -0.0779583455971 0
0.399305685719 -0.0779865949369 0
0.39967600853 -0.0764277060765 0
0.400329891211 -0.0763858799512 0
0.40004334265 -0.0776641795147 0
0.399978542846 -0.0770826436735 0
0.400015374623 -0.0770766609399 0
0.399998087558 -0.0756987101067 0
0.399629879148 -0.0784199451046 0
0.399880030453 -0.0741624402511 0
0.39957361739 -0.0786396033353 0
0.400416849321 -0.0786439904103 0
0.400327781245 -0.0784401359555 0
0.400751356454 -0.0784708867101 0
0.400766521775 -0.0788337844564 0
0.399223717355 -0.0788782998452 0
0.399242386153 -0.0784607000043 0
0.40016106781 -0.0741669905327 0
0.400643036956 -0.0790471345716 0
0.39934884609 -0.0790423133114 0
0.399404950176 -0.0776874527469 0
0.399616182054 -0.0761896275629 0
0.40058370695 -0.0776992854316 0
0.400550634445 -0.079072157336 0
0.399400705072 -0.0790152395021 0
0.400171625645 -0.0758396964963 0
0.400362010418 -0.0761430745405 0
0.399211514609 -0.0793149277979 0
0.399456121082 -0.0795641189911 0
0.400785223023 -0.0793177609258 0
0.400548053458 -0.0795626934015 0
0.399794222884 -0.0758346082913 0
0.399919294076 -0.0779115334892 0
0.399601302635 -0.0795485767681 0
0.400070038097 -0.0779152645512 0
0.400357924957 -0.0796171495812 0
0.400062667855 -0.0793290973512 0
0.399560885462 -0.0769709597051 0
0.399427168434 -0.0774531259036 0
0.399489373765 -0.0789180768967 0
0.400501718361 -0.0789228096478 0
0.400408704127 -0.0769563016066 0
0.399952734131 -0.0737471252385 0
0.40056621335 -0.077416535807 0
0.399871784876 -0.0792369866181 0
0.400019373963 -0.0749393195536 0
0.399256627429 -0.0789459756144 0
0.400737635004 -0.0789488784528 0
0.400803616 -0.0791104929231 0
0.400827738704 -0.0791871932658 0
0.399165866835 -0.0791825492168 0
0.39978223524 -0.076913828033 0
0.399757188035 -0.0756611002076 0
0.400682872003 -0.0785928539022 0
0.399188276781 -0.0791202119892 0
0.400266224185 -0.0769190024977 0
0.399304816405 -0.0785658952385 0
0.399508268949 -0.0779489890236 0
0.399725353759 -0.0785544608923 0
0.400264569999 -0.0785585452145 0
0.399772878601 -0.0779065030747 0
0.400610659984 -0.077951852523 0
0.400488899203 -0.077981170338 0
0.399314855299 -0.0791464171764 0
0.400677225873 -0.0791514746461 0
0.399960998027 -0.07465458348 0
0.400201923062 -0.0756081705427 0
0.399681287356 -0.0743537598005 0
0.400387371068 -0.0750653569735 0
0.400294504882 -0.076571610486 0
0.399594445237 -0.0751090706643 0
0.399687122257 -0.0766248449194 0
0.399433215469 -0.0779212379282 0
0.399922558005 -0.078237811593 0
0.400120379826 -0.0776330012983 0
0.399255105251 -0.0784440026724 0
0.400066671882 -0.0782417539845 0
0.399867635143 -0.0776364411413 0
0.399812248097 -0.0758012403799 0
0.400170915722 -0.078820725796 0
0.400178596861 -0.0757510152292 0
0.400513026907 -0.0786703346839 0
0.400729730017 -0.0783794415683 0
0.400273180291 -0.0795748976915 0
0.399189065161 -0.0790526746567 0
0.400804257395 -0.0790586473969 0
0.400130324095 -0.073707307774 0
0.399497750832 -0.0784023674874 0
0.400377176404 -0.0744037275741 0
0.400487895869 -0.0784067948342 0
0.400673381014 -0.0780526647907 0
0.400763945743 -0.0792004621436 0
0.399228827204 -0.0791953468679 0
0.399318697354 -0.078049324757 0
0.399470257747 -0.078699275548 0
0.400027664808 -0.0747695158907 0
0.399204494712 -0.0787221545681 0
0.399372238383 -0.0775256593736 0
0.399589662627 -0.077026474193 0
0.400283081132 -0.0778198760214 0
0.399148400371 -0.0792529101945 0
0.400846170718 -0.0792571349686 0
0.400002441208 -0.0770928494839 0
0.399750314691 -0.0796123849121 0
0.400789576336 -0.0787395959324 0
0.400006902357 -0.0745042805871 0
0.40062063141 -0.0775391631979 0
0.400478360161 -0.0768746518626 0
0.400135881454 -0.0782078546369 0
0.399165940779 -0.0790395489314 0
0.400828519824 -0.0790429887018 0
0.400506672264 -0.0782296137214 0
0.400670936658 -0.0788332973362 0
0.399548919161 -0.0766458658392 0
0.399413788912 -0.078610927943 0
0.400553925929 -0.0786180142192 0
0.399606807415 -0.0788322611474 0
0.400383769074 -0.0788368784824 0
0.399917692734 -0.0752382053111 0
0.400148575317 -0.079562968995 0
0.399689660829 -0.0797437848808 0
0.399847656192 -0.0763129651876 0
0.39972610458 -0.0737488648533 0
0.400302170991 -0.0797540429377 0
0.400166743855 -0.0762961852385 0
0.399919105677 -0.0756381529383 0
0.399824854394 -0.079543716976 0
0.399739971463 -0.0768111979317 0
0.399691786291 -0.0779432129673 0
0.399786343525 -0.0787760875602 0
0.400299875573 -0.0779395971235 0
0.400279289868 -0.0772111902976 0
0.399708229665 -0.0772132883452 0
0.399448333359 -0.0790347030605 0
0.400543006064 -0.0790396082086 0
0.400045018731 -0.0755896343533 0
0.399896111986 -0.0750562061156 0
0.400379027631 -0.0764470712993 0
0.399611658192 -0.0764191681792 0
0.39925534468 -0.0787828513542 0
0.399580639235 -0.0780329699945 0
0.400478147346 -0.0774252595609 0
0.399556623495 -0.0793000742206 0
0.400729401243 -0.0787903063857 0
0.400764072211 -0.0786966526486 0
0.400184782021 -0.0773556005027 0
0.399509750222 -0.0774837208819 0
0.399137846494 -0.0792209705353 0
0.400856364072 -0.0792254073934 0
0.399947153729 -0.0764705535449 0
0.400241446843 -0.0768211418477 0
0.399805341331 -0.0774424168486 0
0.400323817833 -0.0797479717601 0
0.399959719448 -0.0747650268408 0
0.400707497537 -0.0794193183651 0
0.399294494892 -0.0794228275054 0
0.399855119849 -0.0774558896374 0
0.400122498183 -0.0774780941657 0
0.399655980014 -0.0797317822151 0
0.399309496614 -0.0787792789016 0
0.399298682408 -0.0783433821202 0
0.399295325949 -0.0791052458045 0
0.399463842383 -0.0794945158963 0
0.399324356086 -0.0781384402364 0
0.400697869693 -0.0783676362429 0
0.400565159331 -0.079310203717 0
0.400529477991 -0.0795033378783 0
0.400715385282 -0.0790561549744 0
0.400012129257 -0.0763717225321 0
0.399432641731 -0.0792961235018 0
0.399712207123 -0.0758456047383 0
0.399961198108 -0.0796127243116 0
0.3999507628 -0.078117368561 0
0.400427628635 -0.0770832991146 0
0.399877459277 -0.0784453767774 0
0.4002689823 -0.0757988218136 0
0.400111987294 -0.0784494848807 0
0.400827347229 -0.0792049868797 0
0.400328681044 -0.0739099521573 0
0.399383071254 -0.0789382853196 0
0.400608543953 -0.0789429134832 0
0.399708534367 -0.0787235347874 0
0.400281538141 -0.0787279504093 0
0.399464961316 -0.0783077294327 0
0.39922183466 -0.0786975953481 0
0.400057767978 -0.0740970900082 0
0.399765744748 -0.0784390808416 0
0.399473510967 -0.0787758691015 0
0.400517626639 -0.0787799739672 0
0.39916790184 -0.0791938957771 0
0.400808679715 -0.0789485434941 0
0.400454356011 -0.0765997963283 0
0.399385932793 -0.0791186790911 0
0.400605731717 -0.0791237412557 0
0.400402149963 -0.0793933197776 0
0.39918928326 -0.0789413656584 0
0.399276252957 -0.0792044787365 0
0.400716109847 -0.0792097448707 0
0.400470810917 -0.0758062132789 0
0.40010996818 -0.0753773970565 0
0.400676860366 -0.0794029718074 0
0.399317936024 -0.0794001985316 0
0.399403080473 -0.0779874460535 0
0.400064321005 -0.0746326878142 0
0.400006275413 -0.076039694741 0
0.399958431213 -0.074118289227 0
0.400723413854 -0.0782325524883 0
0.400590697925 -0.0780008140139 0
0.3994625211 -0.0771024532042 0
0.399464666702 -0.0745118834481 0
0.399539182174 -0.0758202483431 0
0.400726726813 -0.0786670171045 0
0.399269318741 -0.0790402630252 0
0.400723303241 -0.0790446966352 0
0.400344956543 -0.0787483439382 0
0.399268936146 -0.0782364783001 0
0.399438590081 -0.0772818088567 0
0.400282751805 -0.0771943912837 0
0.39961965387 -0.0787465298387 0
0.39996311072 -0.0790853616121 0
0.400074669467 -0.0780036519237 0
0.399914123902 -0.0780074692952 0
0.399515349647 -0.0781971025951 0
0.400458591451 -0.0782031406792 0
0.399180538642 -0.0793075240596 0
0.400815394782 -0.0793111850864 0
0.39951074093 -0.0767485456118 0
0.400555202533 -0.0773345491534 0
0.399675243968 -0.0772437048853 0
0.400442361803 -0.0790375093378 0
0.399606119768 -0.0739599306376 0
0.400432523144 -0.0778838375359 0
0.400803817381 -0.0792200721749 0
0.399189368786 -0.0792149655596 0
0.399645113994 -0.0784327355068 0
0.399886426475 -0.0745113112588 0
0.400345109324 -0.0784366765807 0
0.399629535399 -0.0762451838217 0
0.400185995238 -0.0792064534466 0
0.400207338852 -0.0797666706871 0
0.400679455733 -0.0781482433887 0
0.399356103873 -0.0778028559716 0
0.400805547518 -0.0791250799447 0
0.399187873333 -0.0791206529882 0
0.400756447779 -0.0792552180219 0
0.399236527015 -0.0792460505143 0
0.400091997455 -0.0751641706102 0
0.400626407105 -0.0784709300919 0
0.400603790788 -0.074612789013 0
0.400029806858 -0.0735030470676 0
0.400072383601 -0.074919067368 0
0.399227534993 -0.078678965134 0
0.39937140675 -0.0784987772663 0
0.399577818812 -0.0789306016566 0
0.400412930014 -0.0789353921163 0
0.400122238577 -0.0769289900774 0
0.400350530076 -0.0761688840163 0
0.399831861397 -0.073595768253 0
0.400542220741 -0.0795651239886 0
0.399302585721 -0.0788935462081 0
0.400686714163 -0.0788984748543 0
0.400613149764 -0.0776793073932 0
0.399410953742 -0.0795270132165 0
0.399804269925 -0.0797806729423 0
0.400766647519 -0.0785593764704 0
0.399516185406 -0.0790774351226 0
0.399701688913 -0.0760491578694 0
0.400546558277 -0.0776106535159 0
0.400642977046 -0.0777855563283 0
0.400456411147 -0.076786697972 0
0.400565149194 -0.077210195416 0
0.399485624177 -0.0775935425054 0
0.39923342719 -0.0790635231542 0
0.400124944969 -0.0754095142919 0
0.399926731121 -0.0761123186928 0
0.399226107369 -0.0790325111035 0
0.40076666118 -0.0790394668404 0
0.399522712288 -0.0790026965094 0
0.400468272072 -0.0790076004082 0
0.400229957522 -0.075549289654 0
0.40064783928 -0.0786954543108 0
0.400611984679 -0.0786922578968 0
0.400287797633 -0.0760544472845 0
0.399344184673 -0.0777920817333 0
0.399748737078 -0.0765619367956 0
0.399302789406 -0.0787218609639 0
0.399266676812 -0.0791579385428 0
0.400725776491 -0.079162962875 0
0.400064033277 -0.0796561808604 0
0.399792803114 -0.0776990028192 0
0.399815235374 -0.0780683850399 0
0.399228961325 -0.0785530762999 0
0.400273448552 -0.0765642379434 0
0.399845849218 -0.075420667578 0
0.399281680065 -0.0785764889983 0
0.400445429009 -0.0776923784638 0
0.400208770674 -0.0798121702139 0
0.400457788171 -0.076998256688 0
0.400176138489 -0.0780729217097 0
0.39977980675 -0.0791683027846 0
0.399912634839 -0.0749182272487 0
0.400213943969 -0.0777210550804 0
0.399895811575 -0.075974152106 0
0.400335879104 -0.0774878408124 0
0.399514686548 -0.0770118719521 0
0.399556050148 -0.0776966562133 0
0.399652101884 -0.0774913438784 0
0.399998129546 -0.0746013332688 0
0.40010775519 -0.0759580554866 0
0.400032045122 -0.0738807401802 0
0.400845069347 -0.0792250685933 0
0.399148743473 -0.0792202451875 0
0.400586345938 -0.0762532155608 0
0.40067413493 -0.0753671698198 0
0.399927208979 -0.0797381660536 0
0.399320309821 -0.0753655776038 0
0.399407776186 -0.0762783988398 0
0.400218855066 -0.0778910140441 0
0.400090070174 -0.0781788142579 0
0.399745189713 -0.0756054765806 0
0.399769446549 -0.0778947803881 0
0.399898698116 -0.0781827806678 0
0.400781569324 -0.079003438281 0
0.400366418811 -0.0792842204362 0
0.399920308525 -0.0768417828124 0
0.400315713196 -0.073626712409 0
0.399725152872 -0.0747130503134 0
0.400527395774 -0.0740005943913 0
0.399886145666 -0.0753271826383 0
0.40075970029 -0.0788765564868 0
0.400802843278 -0.0791752007692 0
0.399190392687 -0.0791704173463 0
0.399379056705 -0.0786766420865 0
0.400831395185 -0.0791188007609 0
0.399162512113 -0.0791146698037 0
0.400096685985 -0.0785606674241 0
0.399492727779 -0.076998566837 0
0.400131866013 -0.0797377296005 0
0.399876840003 -0.0739235955181 0
0.40029515508 -0.0773023420089 0
0.399833510056 -0.0786311622144 0
0.400156114736 -0.0786354683088 0
0.399209411671 -0.0789635169611 0
0.400399129577 -0.076760440533 0
0.399947778847 -0.0767686826748 0
0.399656296475 -0.0765764180722 0
0.400628484115 -0.079123147391 0
0.399832411423 -0.0754761372876 0
0.399581835639 -0.0767467499012 0
0.40026615709 -0.0747986224743 0
0.400012330301 -0.0752830929452 0
0.399185523056 -0.078879878571 0
0.399689508224 -0.0776571247251 0
0.399990555171 -0.0745172923076 0
0.399894372941 -0.077738342244 0
0.399657684411 -0.0771845410999 0
0.40009000693 -0.0773420234474 0
0.399764718842 -0.0784040204621 0
0.400225128133 -0.0784080565894 0
0.399898041287 -0.0773452656111 0
0.40013721002 -0.0766127094237 0
0.400042371718 -0.0743504834994 0
0.400133844138 -0.0769230735445 0
0.400835185635 -0.0791268828821 0
0.399159697801 -0.0791188767978 0
0.399809642156 -0.0798268064899 0
0.400321424486 -0.0766072645328 0
0.400807870502 -0.0788789541582 0
0.400002660579 -0.0743604231802 0
0.399425884169 -0.0741738455177 0
0.399283150121 -0.079101923194 0
0.400709136675 -0.0791067574923 0
0.399349266732 -0.0791854260581 0
0.400642604647 -0.079190684875 0
0.399806288966 -0.0742132191597 0
0.399251120843 -0.0785790673391 0
0.400102072973 -0.0762828222734 0
0.400747836229 -0.0791826463329 0
0.400497417785 -0.077165302261 0
0.400006232289 -0.0759167996454 0
0.400783773353 -0.0789682359014 0
0.399252053143 -0.0792285907551 0
0.400740502201 -0.079233966307 0
0.40021009751 -0.0784738949009 0
0.400591937088 -0.0782108869148 0
0.399948367322 -0.0776793661097 0
0.399320868647 -0.0789769222928 0
0.400671210562 -0.0789813945641 0
0.399492080212 -0.0785557859546 0
0.39990971258 -0.075562469919 0
0.400490018566 -0.078565981381 0
0.400423870722 -0.0765594400169 0
0.400192620862 -0.0738871395458 0
0.399278154247 -0.0782163336137 0
0.400042316371 -0.0776888493819 0
0.399636160906 -0.0785550333466 0
0.400353996422 -0.0785589370872 0
0.400449887437 -0.0785038577985 0
0.399449525233 -0.0781138454168 0
0.399801416649 -0.079849132395 0
0.399452328134 -0.0790950136446 0
0.400539003763 -0.0791000723024 0
0.400184388105 -0.0743917339507 0
0.39997347228 -0.0783752861012 0
0.40001563558 -0.0783793469409 0
0.399773034775 -0.0761589397206 0
0.399681240895 -0.0759182060307 0
0.399840042053 -0.0797011802046 0
0.399605771298 -0.0780908863339 0
0.399680304334 -0.0781430753391 0
0.400735093885 -0.078541875364 0
0.400156034165 -0.0778976338427 0
0.400384120748 -0.078106638792 0
0.400231964055 -0.0761305625483 0
0.400845754236 -0.0791837785507 0
0.399148314424 -0.0791795215797 0
0.399458894792 -0.0777612610244 0
0.399426121418 -0.0788619748291 0
0.400564790406 -0.0788649121833 0
0.400652447389 -0.0781660951248 0
0.39952668474 -0.0788420803465 0
0.400461147715 -0.0788445390414 0
0.399135248194 -0.0792444443365 0
0.400859312801 -0.0792489235328 0
0.399425356858 -0.0772140234051 0
0.400245690255 -0.0794047048888 0
0.400774569249 -0.0787047659671 0
0.400256880502 -0.078159994987 0
0.400543043411 -0.078133817542 0
0.40018987315 -0.0755251904206 0
0.399568444345 -0.0772313496857 0
0.399304218592 -0.0748208315657 0
0.400569930132 -0.0784541879239 0
0.400814236306 -0.0789804857038 0
0.399179389206 -0.078977143565 0
0.399347543972 -0.0786228502503 0
0.399339455086 -0.0781610392563 0
0.400422089998 -0.0764594142794 0
0.399556336087 -0.0778049884351 0
0.400138752703 -0.0751845065261 0
0.4005174764 -0.0777897956297 0
0.400342689543 -0.0776036035258 0
0.399902196293 -0.0788247083237 0
0.400533245807 -0.0777976146069 0
0.400348026633 -0.075488901804 0
0.400647140458 -0.077726902006 0
0.400771617065 -0.0786334728297 0
0.400083270975 -0.0790476135521 0
0.399374921521 -0.0775900391645 0
0.399864727912 -0.0771489043885 0
0.399729417792 -0.0794390813663 0
0.3995262413 -0.0785154437135 0
0.39938788727 -0.0775357847933 0
0.399722097111 -0.0760281161898 0
0.399507342413 -0.0773322348492 0
0.39938037166 -0.0782046010978 0