# vtk DataFile Version 2.0
Generated with Solid Solver
ASCII
DATASET UNSTRUCTURED_GRID
POINTS 999 float 
0.2 4.325 0.0
1.4 4.325 0.0
1.4 4.825 0.0
0.2 4.825 0.0
1.4 4.34523264049 0.0
1.4 4.36751203886 0.0
1.4 4.39204525371 0.0
1.4 4.4190602782 0.0
1.4 4.44880817466 0.0
1.4 4.48156541084 0.0
1.4 4.51763640748 0.0
1.4 4.5573564007 0.0
1.4 4.60109451608 0.0
1.4 4.64925723872 0.0
1.4 4.70229217343 0.0
1.4 4.76069218095 0.0
1.33333333333 4.825 0.0
1.26666666667 4.825 0.0
1.2 4.825 0.0
1.13333333333 4.825 0.0
1.06666666667 4.825 0.0
1.0 4.825 0.0
0.933333333334 4.825 0.0
0.866666666668 4.825 0.0
0.800000000001 4.825 0.0
0.733333333334 4.825 0.0
0.666666666668 4.825 0.0
0.600000000001 4.825 0.0
0.533333333334 4.825 0.0
0.466666666667 4.825 0.0
0.4 4.825 0.0
0.333333333334 4.825 0.0
0.266666666667 4.825 0.0
0.2 4.76069218095 0.0
0.2 4.70229217343 0.0
0.2 4.64925723872 0.0
0.2 4.60109451608 0.0
0.2 4.5573564007 0.0
0.2 4.51763640748 0.0
0.2 4.48156541084 0.0
0.2 4.44880817466 0.0
0.2 4.4190602782 0.0
0.2 4.39204525371 0.0
0.2 4.36751203886 0.0
0.2 4.34523264049 0.0
0.212131543907 4.30926329506 0.0
0.224675715302 4.29385348652 0.0
0.23762369102 4.27878141198 0.0
0.250966423879 4.26405760374 0.0
0.264694484585 4.24969246611 0.0
0.278798324214 4.23569599189 0.0
0.293267939266 4.22207810803 0.0
0.308093289028 4.20884826442 0.0
0.323263842145 4.19601585877 0.0
0.338769084145 4.18358978512 0.0
0.354597997314 4.17157887342 0.0
0.37073960121 4.15999145532 0.0
0.387182441982 4.14883575334 0.0
0.403915091795 4.13811952025 0.0
0.420925712897 4.12785033813 0.0
0.438202430937 4.11803537461 0.0
0.455733079095 4.10868154223 0.0
0.473505374364 4.09979539439 0.0
0.491506842655 4.09138316882 0.0
0.509724826085 4.0834507802 0.0
0.528146580414 4.07600377808 0.0
0.546759103951 4.06904741762 0.0
0.56554943677 4.06258654322 0.0
0.584504260001 4.05662573401 0.0
0.60361041518 4.0511691282 0.0
0.622854334779 4.04622060039 0.0
0.642222678753 4.04178358113 0.0
0.661701681839 4.03786122392 0.0
0.681277836375 4.03445624851 0.0
0.700937245817 4.03157107217 0.0
0.720666255912 4.02920769845 0.0
0.740450894784 4.02736780161 0.0
0.76027736978 4.02605266363 0.0
0.780131702711 4.02526321235 0.0
0.799999999998 4.025 0.0
0.819868297285 4.02526321235 0.0
0.839722630216 4.02605266363 0.0
0.859549105212 4.02736780161 0.0
0.879333744085 4.02920769845 0.0
0.89906275418 4.03157107217 0.0
0.918722163621 4.03445624851 0.0
0.938298318157 4.03786122392 0.0
0.957777321244 4.04178358113 0.0
0.977145665218 4.04622060039 0.0
0.996389584817 4.0511691282 0.0
1.01549574 4.05662573401 0.0
1.03445056323 4.06258654322 0.0
1.05324089605 4.06904741762 0.0
1.07185341958 4.07600377808 0.0
1.09027517391 4.0834507802 0.0
1.10849315734 4.09138316882 0.0
1.12649462563 4.09979539439 0.0
1.1442669209 4.10868154222 0.0
1.16179756906 4.1180353746 0.0
1.1790742871 4.12785033813 0.0
1.1960849082 4.13811952024 0.0
1.21281755802 4.14883575334 0.0
1.22926039879 4.15999145532 0.0
1.24540200269 4.17157887342 0.0
1.26123091585 4.18358978512 0.0
1.27673615785 4.19601585877 0.0
1.29190671097 4.20884826442 0.0
1.30673206073 4.22207810803 0.0
1.32120167579 4.23569599189 0.0
1.33530551541 4.24969246611 0.0
1.34903357612 4.26405760374 0.0
1.36237630898 4.27878141198 0.0
1.3753242847 4.29385348652 0.0
1.38786845609 4.30926329506 0.0
1.05632730172 4.46025283906 0.0
0.549964048968 4.4630053958 0.0
0.806135520676 4.31186690218 0.0
0.603895783049 4.26079310371 0.0
1.22984770884 4.38318704125 0.0
0.3703382852 4.38423552752 0.0
0.995322815839 4.25565031136 0.0
0.728315816804 4.1765935937 0.0
0.872128173905 4.17288724072 0.0
1.14059401893 4.27298468684 0.0
0.461553191009 4.27181671009 0.0
0.784706775856 4.56821390922 0.0
0.398287125272 4.57945970538 0.0
1.20625306554 4.58334743514 0.0
0.624100842742 4.1589824436 0.0
0.5257453845 4.18811776279 0.0
0.978502430793 4.15488737058 0.0
1.07419209812 4.18825154482 0.0
0.364313698077 4.28677035763 0.0
1.23509538257 4.28681716733 0.0
0.68124123937 4.39284548972 0.0
1.31679378691 4.35012066749 0.0
0.283206213094 4.35012066749 0.0
0.791498533126 4.11467141721 0.0
0.931481076052 4.3801344917 0.0
0.966719065571 4.62778042839 0.0
0.684451667517 4.11068036752 0.0
0.618335406951 4.62686910993 0.0
0.450982331762 4.19686171732 0.0
0.915674266355 4.10995633851 0.0
1.14900051594 4.19689012964 0.0
1.30193709687 4.4481448133 0.0
0.298574667609 4.44816296922 0.0
1.05734787542 4.34990107617 0.0
0.539273225177 4.35252599628 0.0
0.709896798149 4.27721026287 0.0
0.895708916005 4.26924194389 0.0
0.813273511364 4.43835766235 0.0
0.559289631452 4.13230879113 0.0
1.04001407307 4.13281539633 0.0
0.801161810585 4.23146244955 0.0
0.665113819616 4.52056650186 0.0
0.852577362173 4.09111846388 0.0
0.390256727869 4.2242806298 0.0
1.20974450479 4.22428104599 0.0
0.921542541183 4.52778058719 0.0
1.14030889032 4.36437344809 0.0
1.15600477272 4.46808538305 0.0
0.435243219029 4.4750581257 0.0
0.462045157798 4.36654654286 0.0
0.735806812738 4.08472269746 0.0
1.30082934537 4.29793772796 0.0
0.299170654625 4.29793772796 0.0
0.533651712118 4.26265983853 0.0
0.666130919144 4.21652131559 0.0
1.0676097303 4.26179469382 0.0
1.08054433577 4.58530946155 0.0
0.506773767255 4.56568295079 0.0
0.626745312844 4.10124420826 0.0
0.933845304214 4.2106954732 0.0
0.293717639664 4.55175000185 0.0
0.312505022079 4.66426411351 0.0
1.3058164124 4.55154930624 0.0
1.29054387065 4.66302765963 0.0
0.973467966326 4.09941619478 0.0
0.487935413164 4.15087084015 0.0
0.461549079751 4.68836834982 0.0
1.11203248746 4.15093503889 0.0
1.14453515393 4.70617370303 0.0
0.840217564202 4.68891146633 0.0
0.585347033288 4.20539048534 0.0
0.619177396637 4.34227576306 0.0
0.331644410315 4.24962190462 0.0
1.26835558968 4.24962190462 0.0
1.01536156978 4.19987473052 0.0
0.809331033562 4.07065709122 0.0
0.982321540791 4.33437358971 0.0
0.725600576914 4.66999651799 0.0
0.812291456186 4.16642942492 0.0
0.335887692543 4.33918235669 0.0
1.26344844681 4.34017131907 0.0
1.23449730504 4.49457441524 0.0
1.34334172095 4.40539551957 0.0
0.256658279045 4.40539551957 0.0
0.741646926828 4.34287908527 0.0
0.674799084703 4.16673768522 0.0
1.18647435526 4.30955189749 0.0
0.360563250283 4.49596479569 0.0
0.873716483853 4.33845499203 0.0
0.418704489949 4.31146264283 0.0
0.492670911224 4.22931614809 0.0
0.403480880356 4.19046776931 0.0
1.19651541215 4.1904686246 0.0
0.728649253738 4.46214546491 0.0
1.00883674467 4.40174664879 0.0
1.11035034557 4.23161841276 0.0
0.261968539765 4.3130079512 0.0
1.33803146023 4.3130079512 0.0
0.74649980488 4.1318354354 0.0
0.927597725248 4.1577597079 0.0
0.892956618256 4.07619338913 0.0
0.659794281787 4.07951387326 0.0
0.587663534405 4.09486537006 0.0
0.942353209926 4.07935300973 0.0
1.01493747319 4.09476013719 0.0
0.613130017774 4.41369803882 0.0
0.449373501074 4.15377191978 0.0
0.514840228377 4.12225850006 0.0
0.497057592 4.41333092106 0.0
1.15061382426 4.15379293084 0.0
1.08514419473 4.12228328152 0.0
0.745617635771 4.23098957592 0.0
0.87523452213 4.59853036549 0.0
0.855262884783 4.2258970831 0.0
1.01126200032 4.53280064162 0.0
1.09391916408 4.40632408872 0.0
1.04436265455 4.71482000827 0.0
0.314320181089 4.38773968607 0.0
1.28649331902 4.38743720145 0.0
0.771211579291 4.06316862024 0.0
0.432259099658 4.24006002157 0.0
0.698583889427 4.07144353526 0.0
1.16802128371 4.238862881 0.0
1.09587629216 4.3086676659 0.0
1.35920470355 4.35666960471 0.0
0.240795296449 4.35666960471 0.0
0.504003580654 4.30815758118 0.0
0.579942709371 4.5342075073 0.0
0.875915224914 4.12815792528 0.0
0.426503136644 4.40717733008 0.0
0.57541416445 4.30365301522 0.0
0.683877978289 4.33161848113 0.0
0.888061695889 4.44633509246 0.0
0.26012287522 4.49859249103 0.0
1.33987712478 4.49859249103 0.0
0.801393572636 4.37060096582 0.0
0.558460082533 4.72496728209 0.0
1.1741923373 4.41132830101 0.0
0.83220012886 4.12779415912 0.0
1.02815069622 4.30053276509 0.0
0.948308583502 4.2880204454 0.0
0.846588933095 4.50834596945 0.0
0.343666800815 4.43485820652 0.0
1.25632767671 4.43480360053 0.0
0.97849585731 4.47031535602 0.0
1.10170977548 4.51507265998 0.0
0.662193131828 4.26809398492 0.0
0.400503668388 4.26881657105 0.0
1.20117145985 4.26130427377 0.0
0.350957892513 4.21796558019 0.0
1.24904210749 4.21796558019 0.0
0.771964652188 4.18905379403 0.0
0.932165148285 4.72736281402 0.0
0.373672364094 4.73321357765 0.0
0.760245937722 4.28409350779 0.0
0.848718469252 4.05767763075 0.0
1.23385612561 4.7358294747 0.0
0.846421485813 4.28065918421 0.0
0.651597058631 4.13043284014 0.0
0.650489852552 4.72138045504 0.0
0.58457834847 4.16375088261 0.0
0.48701309933 4.18859927013 0.0
0.708495738406 4.58856947756 0.0
1.11203398596 4.18878062515 0.0
0.54865558244 4.10250047869 0.0
1.05126102377 4.10234629471 0.0
0.300013757486 4.26259646442 0.0
1.29998624251 4.26259646442 0.0
0.9465032388 4.12718070354 0.0
0.708587583337 4.14146095907 0.0
0.973348904468 4.19537871864 0.0
0.628721855632 4.19538356945 0.0
0.380175010018 4.34021880077 0.0
0.662092932411 4.45899041267 0.0
1.05133526787 4.22221992007 0.0
0.528087045766 4.64327882187 0.0
1.22233124543 4.33521693908 0.0
1.19001193434 4.36273586668 0.0
0.853024099244 4.39544003492 0.0
0.542800296246 4.22324366905 0.0
0.247706318737 4.45239119247 0.0
1.35229368126 4.45239119247 0.0
0.599153768578 4.12953797005 0.0
1.01616570494 4.16227683178 0.0
0.744705786938 4.40569544575 0.0
1.31929001115 4.73702550052 0.0
0.777615355331 4.15113602511 0.0
1.33132411895 4.60631378639 0.0
0.265621610877 4.60975488866 0.0
0.532023338888 4.15374454388 0.0
1.0697792195 4.15241429251 0.0
0.286371037106 4.73010312914 0.0
0.497725885905 4.50153668256 0.0
0.46053455822 4.31587947599 0.0
0.433799237968 4.54629400991 0.0
0.388624781906 4.65094200004 0.0
0.554823673752 4.40451940232 0.0
1.1421595646 4.31818301431 0.0
1.14760043966 4.61655103139 0.0
1.21258698805 4.65320200685 0.0
1.16279096046 4.53292621409 0.0
0.995762647814 4.12508772517 0.0
0.456229040627 4.61456685246 0.0
0.707289391156 4.21520271873 0.0
0.763036833302 4.74285445535 0.0
0.78386198569 4.49787013126 0.0
[...]
POINT_DATA 999
VECTORS Displacement float
-0.000134697838599 -0.0398691043996 0
0.000139349471374 -0.0398660689377 0
0.0 -0.04 0
0.0 -0.04 0
0.000146227927825 -0.0398653929863 0
0.000152913120438 -0.0398643599806 0
0.00015881201844 -0.0398630004476 0
0.000163564365563 -0.0398619302931 0
0.000165820441194 -0.0398615392642 0
0.000166480338619 -0.0398622289039 0
0.000163227100582 -0.0398643729343 0
0.000155628596959 -0.0398684301223 0
0.000142991439943 -0.0398761382655 0
0.000123243703046 -0.0398886954887 0
9.55979703327e-05 -0.039908922609 0
5.69330026635e-05 -0.039941449658 0
0.0 -0.04 0
0.0 -0.04 0
0.0 -0.04 0
0.0 -0.04 0
0.0 -0.04 0
0.0 -0.04 0
0.0 -0.04 0
0.0 -0.04 0
0.0 -0.04 0
0.0 -0.04 0
0.0 -0.04 0
0.0 -0.04 0
0.0 -0.04 0
0.0 -0.04 0
0.0 -0.04 0
0.0 -0.04 0
0.0 -0.04 0
-5.58740536547e-05 -0.0399426382833 0
-9.39977431798e-05 -0.0399107770654 0
-0.000122240072206 -0.0398907661087 0
-0.000140955663584 -0.0398782763921 0
-0.000153056599052 -0.039870745108 0
-0.000160340408523 -0.0398668681448 0
-0.000163260022552 -0.0398649233116 0
-0.000162273734749 -0.0398643674571 0
-0.000159724437202 -0.039864848126 0
-0.000154719407591 -0.0398659765389 0
-0.000148600895202 -0.0398673686545 0
-0.000141730140161 -0.0398684206385 0
-0.000128927481755 -0.0398655455982 0
-0.000122578592089 -0.0398617043331 0
-0.000115667292647 -0.0398572628089 0
-0.000108081375419 -0.0398522002857 0
-9.98924690671e-05 -0.0398463084884 0
-9.13001471886e-05 -0.0398394379907 0
-8.22548719318e-05 -0.0398317213015 0
-7.24562787072e-05 -0.0398230534232 0
-6.21213501528e-05 -0.0398128846979 0
-5.16325660397e-05 -0.0398019588466 0
-4.06046216602e-05 -0.0397896383243 0
-2.88920650733e-05 -0.0397759990237 0
-1.70039654457e-05 -0.0397606996001 0
-4.60892651246e-06 -0.039743940505 0
8.14388214223e-06 -0.0397255171676 0
2.13628212602e-05 -0.0397051634429 0
3.47063631552e-05 -0.0396827166481 0
4.88012232235e-05 -0.0396581616201 0
6.28770225208e-05 -0.0396309773524 0
7.76426241461e-05 -0.0396008907445 0
9.21364296676e-05 -0.0395677425884 0
0.000107785965671 -0.0395310709221 0
0.000122880459474 -0.0394899195253 0
0.00013897164509 -0.0394441366915 0
0.00015485934206 -0.039392539782 0
0.000172615466222 -0.0393330502712 0
0.000188475492392 -0.0392648602477 0
0.000206926592707 -0.0391820783878 0
0.000220842875621 -0.0390829733988 0
0.000237354924211 -0.038950476074 0
0.000241870779117 -0.0387338723711 0
0.000209533170919 -0.0385532553413 0
0.000157008629709 -0.0384220781917 0
9.16679807391e-05 -0.0383443078095 0
7.63043895094e-06 -0.0383130182809 0
-7.40451596453e-05 -0.0383405097155 0
-0.000147539389984 -0.0384205837256 0
-0.000203695847247 -0.0385499882289 0
-0.000235704272175 -0.0387309450909 0
-0.000227570048444 -0.0389505568276 0
-0.000214414595181 -0.039080004771 0
-0.000195889772046 -0.0391796733427 0
-0.000180418089025 -0.0392622472695 0
-0.000164672884087 -0.039330623087 0
-0.00014717120103 -0.0393901565623 0
-0.000131528788345 -0.039441890496 0
-0.000115556737054 -0.0394877293281 0
-0.000100563964203 -0.0395286772059 0
-8.51803062789e-05 -0.0395652371871 0
-7.08867044982e-05 -0.039598394346 0
-5.63086593169e-05 -0.039628506888 0
-4.23762170114e-05 -0.0396557226365 0
-2.8388884998e-05 -0.0396803045894 0
-1.51456498158e-05 -0.0397027544273 0
-2.02212908182e-06 -0.0397231006854 0
1.06321110251e-05 -0.0397415081757 0
2.2928413444e-05 -0.0397582488768 0
3.47182321647e-05 -0.0397735306594 0
4.63378354066e-05 -0.0397871520588 0
5.72751396266e-05 -0.0397994510772 0
6.76776443145e-05 -0.0398103497826 0
7.7925559984e-05 -0.0398204854621 0
8.76314061182e-05 -0.039829108447 0
9.65791907388e-05 -0.0398367786747 0
0.000105072978785 -0.0398435993299 0
0.000113162724498 -0.0398494368794 0
0.000120646191932 -0.0398544400329 0
0.000127451995357 -0.0398588186742 0
0.000133693509148 -0.0398625901852 0
0.000132042822057 -0.0397140734667 0
-0.000126830798649 -0.0397129760744 0
7.24100367948e-06 -0.0393266127126 0
-0.000117498260184 -0.0394689209521 0
0.000155593656378 -0.0397974611301 0
-0.000151546376658 -0.0397996114227 0
0.000121724443579 -0.0394607171802 0
-6.91814442282e-05 -0.0390655318987 0
7.44692991829e-05 -0.0390564712958 0
0.00012415811285 -0.0396910590219 0
-0.000118679108301 -0.0396902339415 0
-6.68425806982e-06 -0.0397358207599 0
-0.000128597922687 -0.0398676519213 0
0.000129671603983 -0.0398699265549 0
-6.8011802822e-05 -0.0393462227806 0
-6.95193987888e-05 -0.0395780152584 0
6.925325885e-05 -0.0393494545844 0
7.56990610201e-05 -0.0395755713256 0
-0.000120911111506 -0.0397861035764 0
0.000125817824371 -0.0397833167212 0
-8.30321944196e-05 -0.0395301390106 0
0.000148447516555 -0.0398368354686 0
-0.000144017110491 -0.0398393103543 0
-5.15925981408e-06 -0.0387387200673 0
9.52186032135e-05 -0.0395220927054 0
6.37504918537e-05 -0.0398292923581 0
-3.64806321347e-05 -0.0390933313852 0
-6.77492031247e-05 -0.0398326358262 0
-6.65337125034e-05 -0.0396911111835 0
4.30811259853e-05 -0.0390912828854 0
7.23152319029e-05 -0.0396887683757 0
0.000163453915497 -0.0398452085208 0
-0.000159950369228 -0.039847218405 0
0.000140680292974 -0.0396277000018 0
-0.000136938610761 -0.039635063855 0
-7.75111091639e-05 -0.0393141296561 0
8.67131306984e-05 -0.0393060565315 0
1.10711477338e-05 -0.0395546166936 0
-1.15361839454e-05 -0.0395048160834 0
1.87775616483e-05 -0.0395006166224 0
3.30326103554e-06 -0.0391368188507 0
-7.23896255397e-05 -0.0397040839261 0
2.87155828366e-05 -0.038745842956 0
-8.45505001671e-05 -0.0397592459807 0
8.99708729614e-05 -0.0397568910863 0
6.67657170668e-05 -0.0397067998818 0
0.000149836515273 -0.0397231677353 0
0.000150011593304 -0.0397869436801 0
-0.000147628554525 -0.0397969469226 0
-0.000145644667506 -0.0397236022005 0
-1.48194613453e-05 -0.038781095807 0
0.000129455618335 -0.0398262985138 0
-0.000124611720339 -0.0398287991146 0
-0.000119125996053 -0.0395890431165 0
-9.97570436228e-05 -0.0392916633524 0
0.000123823611871 -0.0395887601946 0
0.000107566846441 -0.039828555891 0
-0.000114529740103 -0.0398194864349 0
1.61930167619e-05 -0.0393197066763 0
0.000104402111677 -0.0392820093585 0
-0.000148015414271 -0.0398759890262 0
-0.000102017524777 -0.0399208029504 0
0.000150556969815 -0.0398742372274 0
0.000104485971624 -0.0399191990865 0
-1.2813880938e-05 -0.0393175558954 0
-2.26736597624e-05 -0.0396371246379 0
-7.55871389139e-05 -0.0399174066171 0
2.89068956095e-05 -0.039634696113 0
6.88227254395e-05 -0.0399293765065 0
1.27446349133e-05 -0.0398741508651 0
-9.55923628915e-05 -0.0394664693906 0
-0.000118322070546 -0.0395290361355 0
-9.96167865593e-05 -0.0398073657375 0
0.000104828414357 -0.0398049114844 0
9.74167604265e-05 -0.0394626159612 0
3.32185495744e-06 -0.0385326679843 0
0.000123080015582 -0.0395210703039 0
-2.4472841147e-05 -0.0398570749218 0
1.71875107993e-05 -0.0389418543482 0
-0.000141211213162 -0.0398116053921 0
0.000145987828162 -0.0398090884976 0
0.00015545247578 -0.0398372791839 0
0.000161058487139 -0.0398503500495 0
-0.000157126687976 -0.0398528616637 0
-4.68164293922e-05 -0.0394068409171 0
-8.37545056987e-05 -0.0391995550765 0
0.000137122332869 -0.0397467782913 0
-0.000153137752737 -0.0398412055844 0
6.33183938953e-05 -0.0394088211669 0
-0.00013330325229 -0.0397447183621 0
-9.73500240135e-05 -0.039639474583 0
-5.76152838869e-05 -0.0397448844776 0
6.33127663097e-05 -0.0397424620663 0
-4.48906584716e-05 -0.0396036656561 0
0.000126170790878 -0.0396206617428 0
0.000103995111402 -0.0396420362965 0
-0.000130627042455 -0.0398469356286 0
0.000135357213911 -0.0398442743781 0
-4.81086723983e-05 -0.0388920213484 0
8.56069682209e-05 -0.0391934149179 0
-5.97650552367e-06 -0.0389293943834 0
4.86424805892e-05 -0.0391909041669 0
4.71052542612e-05 -0.0394358266013 0
-4.26336736195e-05 -0.0391973265239 0
-4.05279093281e-05 -0.0394401788002 0
-0.000113149197649 -0.0396143888696 0
-2.26889937216e-05 -0.0396914029041 0
1.2758929869e-05 -0.0395924361388 0
-0.000143764151285 -0.0397178653747 0
2.87520498063e-05 -0.0396889949942 0
-6.36078293483e-06 -0.0395898923946 0
-5.26729496019e-05 -0.0391704571856 0
3.46699481631e-05 -0.0397781820226 0
5.96063502418e-05 -0.0391585170598 0
0.000102207116901 -0.039752757937 0
0.000146018262832 -0.0397039973577 0
5.30243177425e-05 -0.0399211676433 0
-0.000153200760165 -0.0398300642338 0
0.000157235111165 -0.0398281475058 0
1.79587847177e-05 -0.0385385740574 0
-9.82788102364e-05 -0.0397179109427 0
3.56439945423e-05 -0.0389803656371 0
0.000102705762325 -0.0397157560263 0
0.000137987874579 -0.0396492283365 0
0.000150281567641 -0.0398526045745 0
-0.000145892799868 -0.0398553226025 0
-0.000133385781499 -0.0396511842537 0
-0.000102460051325 -0.0397594748126 0
6.60792950034e-05 -0.0389545510918 0
-0.000151580804444 -0.0397701304162 0
-0.000128113827639 -0.0395515282065 0
-8.89243030801e-05 -0.0394375583427 0
6.04475828357e-05 -0.0395869637524 0
-0.000159824839502 -0.0398649324975 0
0.00016272234673 -0.0398628218406 0
3.0301062308e-06 -0.0394402956682 0
-4.76691725424e-05 -0.0399284331536 0
0.000155232406962 -0.0397709201919 0
3.79038580622e-05 -0.0388227564106 0
0.000132753953191 -0.0395525372551 0
0.000112402465054 -0.0394155870639 0
2.89556690955e-05 -0.0396607747148 0
-0.000157428788625 -0.0398273072925 0
0.000161015420633 -0.0398253360404 0
0.000103380904209 -0.0396694509727 0
0.000131739787767 -0.039785370804 0
-0.000104152831602 -0.0393729268869 0
-0.000113269448108 -0.03975365228 0
0.000114164975386 -0.0397520033633 0
-7.87680811717e-05 -0.0397926061454 0
8.42205408405e-05 -0.0397901575194 0
-2.88598065086e-05 -0.0390261578594 0
2.91878660856e-05 -0.039918381188 0
-5.8410606606e-05 -0.0399533415894 0
-3.5938589252e-05 -0.0392794011286 0
-3.34066345014e-05 -0.0385953647026 0
5.76206545781e-05 -0.0399546364803 0
4.63967954377e-05 -0.0392763089172 0
-4.69603880443e-05 -0.0392412540463 0
-3.35889098526e-05 -0.0399151111951 0
-5.98908828095e-05 -0.0394513556559 0
-6.34638223853e-05 -0.0396409468299 0
-4.11656534723e-05 -0.0397703006114 0
6.96124251609e-05 -0.0396373565219 0
4.10101311629e-05 -0.0395272457378 0
-3.43328058279e-05 -0.0395245755134 0
-0.000106936379405 -0.0398276174762 0
0.000112043850068 -0.0398250656892 0
4.97103373173e-05 -0.0392314184557 0
-6.79054873611e-05 -0.0390432012383 0
0.000101189633759 -0.0393622150537 0
-9.55339909031e-05 -0.0393593909994 0
-0.000141797697165 -0.0397826918904 0
-8.33100804353e-05 -0.0396312085524 0
0.000105795874087 -0.0395444562777 0
-8.46196494931e-05 -0.0398711624121 0
0.000144848655177 -0.03978125128 0
0.000151144444972 -0.0397641747878 0
4.21129631112e-05 -0.0394944154569 0
-9.99336704889e-05 -0.0395574741889 0
-0.000161971938083 -0.0398594054359 0
0.000165426483439 -0.0398569721265 0
-2.1477447042e-05 -0.0394067731309 0
6.44912957681e-05 -0.0394505675338 0
-3.93525120328e-05 -0.03951224774 0
6.14250518289e-05 -0.0399531926092 0
-2.19227542466e-05 -0.0388953024896 0
0.000135045226477 -0.0398924261624 0
-0.000132141760969 -0.0398951134788 0
-3.38966539199e-05 -0.0395621962878 0
3.8086592932e-05 -0.039562866901 0
-6.43623400269e-05 -0.0399511056846 0
-0.000132333676371 -0.039777123797 0
-0.000135374846054 -0.0397046161064 0
-0.000133661940999 -0.0398373840432 0
-0.000101097513566 -0.0399080781612 0
-0.000132653350855 -0.0396592992949 0
0.000140677814668 -0.0397062580393 0
0.000109222891237 -0.0398730241889 0
0.000101506360139 -0.0399086115082 0
0.000138927990037 -0.0398269272698 0
2.3248203729e-05 -0.0393898184366 0
-0.000107653564754 -0.0398715005136 0
-8.32244506309e-05 -0.0391990492355 0
-7.28441434736e-06 -0.0399275320938 0
-8.42224390854e-06 -0.0396432151277 0
9.75320754098e-05 -0.0394482898817 0
-3.0867315255e-05 -0.0397264340644 0
8.81588539613e-05 -0.0391872855024 0
3.67911639448e-05 -0.0397240184881 0
0.000159442266968 -0.0398540360577 0
4.44396844358e-05 -0.0387151316234 0
-0.00011854317538 -0.0398106940985 0
0.000123486229431 -0.0398082810144 0
-6.07520769763e-05 -0.0397739079378 0
6.63701361726e-05 -0.0397714670543 0
-0.000104925404172 -0.0396859215426 0
-0.000148286774455 -0.0397667156708 0
-1.61266315891e-05 -0.0386938755341 0
-4.54883074129e-05 -0.0397062254178 0
-0.000102427895009 -0.0397826024551 0
0.00010763511878 -0.0397801846468 0
-0.000156555760809 -0.0398545497063 0
0.000157521576751 -0.0398082826423 0
0.000113265764872 -0.0393699093899 0
-0.000118016348681 -0.0398421905852 0
0.000122963537012 -0.0398395461112 0
7.80949529992e-05 -0.0398877332502 0
-0.000153591586809 -0.0398091775195 0
-0.000137456336923 -0.0398570220551 0
0.000142051121001 -0.0398542348774 0
7.50646521085e-05 -0.0393378925299 0
4.64660387324e-05 -0.0390648793517 0
0.000129649627737 -0.0398901094393 0
-0.000128210239565 -0.0398912619882 0
-0.00011726191028 -0.0396436387944 0
-4.20802263881e-05 -0.0389531908593 0
5.39022797956e-06 -0.0392155218229 0
1.98571113612e-05 -0.0386859741089 0
0.000146102013468 -0.0396796069856 0
0.000122852704031 -0.0396431757608 0
-0.000115109414577 -0.0394642385006 0
-7.09886557049e-05 -0.0390583604343 0
-6.31934279815e-05 -0.0393350950527 0
0.000143407900929 -0.0397557287166 0
-0.000138815828479 -0.0398282450432 0
0.000143393333947 -0.0398258053149 0
6.91000464289e-05 -0.03976560426 0
-0.000141962726131 -0.0396826957865 0
-0.000116878659849 -0.0395135579976 0
6.94127572512e-05 -0.0395124114027 0
-7.36845724286e-05 -0.0397662196247 0
-6.56088646729e-06 -0.0398281473541 0
3.99308209526e-06 -0.0396525965419 0
2.30397148302e-06 -0.0396501511412 0
-9.53915066792e-05 -0.0396825345417 0
9.78298419761e-05 -0.0396808363245 0
-0.000153610401413 -0.0398744892143 0
0.00015620752961 -0.0398724884607 0
-0.00011070216618 -0.0394092405591 0
0.000122143688368 -0.0395209469464 0
-6.93332684391e-05 -0.0395224726222 0
8.69989540199e-05 -0.0398210939198 0
-4.42322472392e-05 -0.0387593403503 0
9.06711794841e-05 -0.0396020925373 0
0.000157059232701 -0.039855910308 0
-0.000152900069498 -0.0398586476666 0
-7.17582014362e-05 -0.0397238598233 0
4.30268689553e-05 -0.0389144978101 0
7.73899642563e-05 -0.0397214888483 0
-9.36722513529e-05 -0.0392875820334 0
3.69806938592e-05 -0.0398513143823 0
3.9921699466e-05 -0.0399568711624 0
0.000138029159943 -0.0396599658521 0
-0.000129077884504 -0.0395974545522 0
0.00015740070097 -0.039839681269 0
-0.000153294772365 -0.0398420766101 0
0.000145576014526 -0.0398633164985 0
-0.000143816107984 -0.0398636036175 0
7.5462839834e-05 -0.0390875834514 0
0.000127383186836 -0.039725852048 0
0.000101888614987 -0.0391109093708 0
1.45280629685e-05 -0.0384301579937 0
5.12170968126e-05 -0.0389511686118 0
-0.000147711760485 -0.0397609811078 0
-0.000121203459073 -0.0397336812064 0
-8.39544776655e-05 -0.039809637222 0
8.93401242763e-05 -0.0398071377459 0
3.03831822428e-05 -0.0394073249031 0
9.84440017531e-05 -0.0392709998501 0
-2.26423442493e-05 -0.0384869997775 0
0.000103033628114 -0.0399191205249 0
-0.000133010281033 -0.0398025906285 0
0.000137189012752 -0.039800410227 0
0.000129419342079 -0.0395717538162 0
-0.00011019158019 -0.0399138418599 0
-3.71859625041e-05 -0.039959726578 0
0.000151932362935 -0.0397381155851 0
-9.27430456716e-05 -0.0398297975881 0
-8.53430794033e-05 -0.0392927325938 0
0.00011653578559 -0.039554544724 0
0.000134427985745 -0.039600633135 0
0.000110424579948 -0.039422600021 0
0.000125864616571 -0.0394871251184 0
-0.000105195675929 -0.0395508779998 0
-0.000145129257863 -0.039830465895 0
-5.46514464712e-06 -0.0392272613762 0
-3.15496255407e-05 -0.0393431720596 0
-0.000146572276974 -0.0398267170492 0
0.000150877525248 -0.0398248456553 0
-9.37432446951e-05 -0.039822120176 0
9.90104915173e-05 -0.0398195776187 0
9.02984091351e-05 -0.0391489879572 0
0.000130659241484 -0.0397650709077 0
0.000121217775876 -0.0397582591318 0
9.16201650853e-05 -0.0392898175149 0
-0.000130582253418 -0.0396040623546 0
-5.76622763662e-05 -0.0393358798713 0
-0.000133263001679 -0.0397723442394 0
-0.00013918654106 -0.0398488573781 0
0.000143739232321 -0.0398462138947 0
1.2695419927e-05 -0.0399356769671 0
-4.51560287837e-05 -0.0396012556379 0
-4.12437989595e-05 -0.03966276887 0
-0.000147881269009 -0.0397392143013 0
6.92779652197e-05 -0.039336889276 0
9.19056079141e-06 -0.0392288244451 0
-0.00013831972634 -0.0397406080034 0
9.73157550483e-05 -0.0395928151578 0
3.99404158779e-05 -0.0399653477652 0
7.15523297596e-05 -0.0394963103294 0
4.76177690204e-05 -0.0396604900881 0
-4.23114811019e-05 -0.0398446110374 0
-4.74795560677e-05 -0.0389537967169 0
5.4395564962e-05 -0.0396017248408 0
-2.56423940338e-05 -0.0392030118254 0
4.94210761675e-05 -0.0395699412625 0
-6.6530870408e-05 -0.039495363958 0
-8.94485156838e-05 -0.0395967120618 0
-4.26979043071e-05 -0.0395673952713 0
7.54420368277e-06 -0.0388410486629 0
3.42237314672e-05 -0.0391997500294 0
-4.63248469804e-07 -0.0385905037946 0
0.000163853292374 -0.0398567720013 0
-0.000160094392108 -0.0398593794477 0
9.70198399398e-05 -0.0394019095142 0
0.000110852357982 -0.0392830662307 0
-1.39402015444e-05 -0.0399511770675 0
-0.000101140114525 -0.0392783040346 0
-8.82138504349e-05 -0.0394016311915 0
2.8696043799e-05 -0.0396342360593 0
6.28004763706e-06 -0.0396816375928 0
-8.48003388525e-05 -0.0391603984067 0
-2.22676608808e-05 -0.0396317541174 0
-5.6361500284e-08 -0.0396792176888 0
0.000151808907668 -0.0398178618336 0
7.16375608833e-05 -0.0398669982545 0
-1.5569407953e-05 -0.0393894333411 0
7.78915047112e-05 -0.0385525676134 0
7.37907797951e-07 -0.0390561898252 0
9.92040229737e-05 -0.0388434497767 0
-6.54958937126e-05 -0.0391454230027 0
0.000149930654084 -0.0397962893503 0
0.000156923662798 -0.0398482785744 0
-0.000152769700064 -0.0398508373456 0
-0.000119760973167 -0.0397567497793 0
0.000161656596153 -0.0398386320643 0
-0.000157850423048 -0.039840858955 0
2.04084823697e-05 -0.0397283839061 0
-0.000109756053782 -0.0394633375843 0
2.56905732844e-05 -0.0399511671755 0
1.25998505009e-05 -0.0386309527214 0
6.62128072128e-05 -0.0394859807509 0
-3.87562465401e-05 -0.0397581128802 0
4.45574401548e-05 -0.0397556738591 0
-0.000149721754278 -0.039814391319 0
9.63171811856e-05 -0.0393850056574 0
7.00795781194e-06 -0.0394550775863 0
-8.20582829301e-05 -0.0394008769071 0
0.000122114369022 -0.0398386597164 0
-5.54824956158e-05 -0.0390956254396 0
-9.45361567465e-05 -0.0393853440889 0
1.07501143003e-05 -0.0390898292624 0
9.7564130899e-06 -0.0390338839328 0
-0.000154419006483 -0.0397987255051 0
-6.28657061034e-05 -0.0395565371868 0
5.11882679227e-05 -0.0388522789144 0
-2.010901336e-05 -0.0395696883185 0
-7.24972109312e-05 -0.039464992453 0
8.47108062121e-06 -0.0395465261386 0
-5.0540454013e-05 -0.0397192780614 0
5.63634034808e-05 -0.0397168824603 0
-1.95926185972e-06 -0.0395439415694 0
3.58967186207e-05 -0.0393422366759 0
-3.68240637956e-05 -0.0388079295481 0
1.75922360556e-05 -0.0394833254883 0
0.000161560533377 -0.0398401946483 0
-0.000158317111835 -0.0398412941874 0
-3.59896184636e-05 -0.0399683444014 0
8.49131141223e-05 -0.0394051625957 0
0.000157985680357 -0.0397961238153 0
-2.70843527957e-05 -0.0387779113127 0
-9.11617872618e-05 -0.0389367219024 0
-0.000136292575368 -0.0398390893276 0
0.000140898772237 -0.0398365513383 0
-0.000124517915438 -0.039853800716 0
0.000129360074312 -0.0398510331442 0
2.04348730888e-05 -0.0388072740592 0
-0.000143269659292 -0.039746087138 0
8.91285825247e-06 -0.0393864619131 0
0.0001443484384 -0.0398502255795 0
0.000112700631652 -0.0394944727103 0
3.12072708299e-05 -0.0393087044108 0
0.000153912512618 -0.0398123448938 0
-0.000141740222894 -0.0398612040946 0
0.00014623503991 -0.03985834558 0
4.31979608919e-05 -0.0397122448181 0
0.000120307684628 -0.0396680632625 0
-1.72370026579e-05 -0.0395992744346 0
-0.000129633857773 -0.0398172924041 0
0.00013439708069 -0.0398148752091 0
-9.91789225732e-05 -0.0397444622911 0
-2.59219332501e-05 -0.0391068410485 0
0.000102897516063 -0.0397432395474 0
0.000106443100258 -0.0393527298974 0
1.24847735539e-05 -0.0386486832973 0
-0.000140738639243 -0.0396762654919 0
2.3859890658e-05 -0.0395977353759 0
-7.3400377636e-05 -0.0397448098734 0
7.89501734184e-05 -0.0397423877365 0
9.06580343007e-05 -0.0397203898631 0
-0.000107793138527 -0.039667117051 0
-3.72023070532e-05 -0.0399725068242 0
-0.000106246526909 -0.0398381353106 0