# vtk DataFile Version 2.0
Generated with Solid Solver
ASCII
DATASET UNSTRUCTURED_GRID
POINTS 999 float 
0.2 4.325 0.0
1.4 4.325 0.0
1.4 4.825 0.0
0.2 4.825 0.0
1.4 4.34523264049 0.0
1.4 4.36751203886 0.0
1.4 4.39204525371 0.0
1.4 4.4190602782 0.0
1.4 4.44880817466 0.0
1.4 4.48156541084 0.0
1.4 4.51763640748 0.0
1.4 4.5573564007 0.0
1.4 4.60109451608 0.0
1.4 4.64925723872 0.0
1.4 4.70229217343 0.0
1.4 4.76069218095 0.0
1.33333333333 4.825 0.0
1.26666666667 4.825 0.0
1.2 4.825 0.0
1.13333333333 4.825 0.0
1.06666666667 4.825 0.0
1.0 4.825 0.0
0.933333333334 4.825 0.0
0.866666666668 4.825 0.0
0.800000000001 4.825 0.0
0.733333333334 4.825 0.0
0.666666666668 4.825 0.0
0.600000000001 4.825 0.0
0.533333333334 4.825 0.0
0.466666666667 4.825 0.0
0.4 4.825 0.0
0.333333333334 4.825 0.0
0.266666666667 4.825 0.0
0.2 4.76069218095 0.0
0.2 4.70229217343 0.0
0.2 4.64925723872 0.0
0.2 4.60109451608 0.0
0.2 4.5573564007 0.0
0.2 4.51763640748 0.0
0.2 4.48156541084 0.0
0.2 4.44880817466 0.0
0.2 4.4190602782 0.0
0.2 4.39204525371 0.0
0.2 4.36751203886 0.0
0.2 4.34523264049 0.0
0.212131543907 4.30926329506 0.0
0.224675715302 4.29385348652 0.0
0.23762369102 4.27878141198 0.0
0.250966423879 4.26405760374 0.0
0.264694484585 4.24969246611 0.0
0.278798324214 4.23569599189 0.0
0.293267939266 4.22207810803 0.0
0.308093289028 4.20884826442 0.0
0.323263842145 4.19601585877 0.0
0.338769084145 4.18358978512 0.0
0.354597997314 4.17157887342 0.0
0.37073960121 4.15999145532 0.0
0.387182441982 4.14883575334 0.0
0.403915091795 4.13811952025 0.0
0.420925712897 4.12785033813 0.0
0.438202430937 4.11803537461 0.0
0.455733079095 4.10868154223 0.0
0.473505374364 4.09979539439 0.0
0.491506842655 4.09138316882 0.0
0.509724826085 4.0834507802 0.0
0.528146580414 4.07600377808 0.0
0.546759103951 4.06904741762 0.0
0.56554943677 4.06258654322 0.0
0.584504260001 4.05662573401 0.0
0.60361041518 4.0511691282 0.0
0.622854334779 4.04622060039 0.0
0.642222678753 4.04178358113 0.0
0.661701681839 4.03786122392 0.0
0.681277836375 4.03445624851 0.0
0.700937245817 4.03157107217 0.0
0.720666255912 4.02920769845 0.0
0.740450894784 4.02736780161 0.0
0.76027736978 4.02605266363 0.0
0.780131702711 4.02526321235 0.0
0.799999999998 4.025 0.0
0.819868297285 4.02526321235 0.0
0.839722630216 4.02605266363 0.0
0.859549105212 4.02736780161 0.0
0.879333744085 4.02920769845 0.0
0.89906275418 4.03157107217 0.0
0.918722163621 4.03445624851 0.0
0.938298318157 4.03786122392 0.0
0.957777321244 4.04178358113 0.0
0.977145665218 4.04622060039 0.0
0.996389584817 4.0511691282 0.0
1.01549574 4.05662573401 0.0
1.03445056323 4.06258654322 0.0
1.05324089605 4.06904741762 0.0
1.07185341958 4.07600377808 0.0
1.09027517391 4.0834507802 0.0
1.10849315734 4.09138316882 0.0
1.12649462563 4.09979539439 0.0
1.1442669209 4.10868154222 0.0
1.16179756906 4.1180353746 0.0
1.1790742871 4.12785033813 0.0
1.1960849082 4.13811952024 0.0
1.21281755802 4.14883575334 0.0
1.22926039879 4.15999145532 0.0
1.24540200269 4.17157887342 0.0
1.26123091585 4.18358978512 0.0
1.27673615785 4.19601585877 0.0
1.29190671097 4.20884826442 0.0
1.30673206073 4.22207810803 0.0
1.32120167579 4.23569599189 0.0
1.33530551541 4.24969246611 0.0
1.34903357612 4.26405760374 0.0
1.36237630898 4.27878141198 0.0
1.3753242847 4.29385348652 0.0
1.38786845609 4.30926329506 0.0
1.05632730172 4.46025283906 0.0
0.549964048968 4.4630053958 0.0
0.806135520676 4.31186690218 0.0
0.603895783049 4.26079310371 0.0
1.22984770884 4.38318704125 0.0
0.3703382852 4.38423552752 0.0
0.995322815839 4.25565031136 0.0
0.728315816804 4.1765935937 0.0
0.872128173905 4.17288724072 0.0
1.14059401893 4.27298468684 0.0
0.461553191009 4.27181671009 0.0
0.784706775856 4.56821390922 0.0
0.398287125272 4.57945970538 0.0
1.20625306554 4.58334743514 0.0
0.624100842742 4.1589824436 0.0
0.5257453845 4.18811776279 0.0
0.978502430793 4.15488737058 0.0
1.07419209812 4.18825154482 0.0
0.364313698077 4.28677035763 0.0
1.23509538257 4.28681716733 0.0
0.68124123937 4.39284548972 0.0
1.31679378691 4.35012066749 0.0
0.283206213094 4.35012066749 0.0
0.791498533126 4.11467141721 0.0
0.931481076052 4.3801344917 0.0
0.966719065571 4.62778042839 0.0
0.684451667517 4.11068036752 0.0
0.618335406951 4.62686910993 0.0
0.450982331762 4.19686171732 0.0
0.915674266355 4.10995633851 0.0
1.14900051594 4.19689012964 0.0
1.30193709687 4.4481448133 0.0
0.298574667609 4.44816296922 0.0
1.05734787542 4.34990107617 0.0
0.539273225177 4.35252599628 0.0
0.709896798149 4.27721026287 0.0
0.895708916005 4.26924194389 0.0
0.813273511364 4.43835766235 0.0
0.559289631452 4.13230879113 0.0
1.04001407307 4.13281539633 0.0
0.801161810585 4.23146244955 0.0
0.665113819616 4.52056650186 0.0
0.852577362173 4.09111846388 0.0
0.390256727869 4.2242806298 0.0
1.20974450479 4.22428104599 0.0
0.921542541183 4.52778058719 0.0
1.14030889032 4.36437344809 0.0
1.15600477272 4.46808538305 0.0
0.435243219029 4.4750581257 0.0
0.462045157798 4.36654654286 0.0
0.735806812738 4.08472269746 0.0
1.30082934537 4.29793772796 0.0
0.299170654625 4.29793772796 0.0
0.533651712118 4.26265983853 0.0
0.666130919144 4.21652131559 0.0
1.0676097303 4.26179469382 0.0
1.08054433577 4.58530946155 0.0
0.506773767255 4.56568295079 0.0
0.626745312844 4.10124420826 0.0
0.933845304214 4.2106954732 0.0
0.293717639664 4.55175000185 0.0
0.312505022079 4.66426411351 0.0
1.3058164124 4.55154930624 0.0
1.29054387065 4.66302765963 0.0
0.973467966326 4.09941619478 0.0
0.487935413164 4.15087084015 0.0
0.461549079751 4.68836834982 0.0
1.11203248746 4.15093503889 0.0
1.14453515393 4.70617370303 0.0
0.840217564202 4.68891146633 0.0
0.585347033288 4.20539048534 0.0
0.619177396637 4.34227576306 0.0
0.331644410315 4.24962190462 0.0
1.26835558968 4.24962190462 0.0
1.01536156978 4.19987473052 0.0
0.809331033562 4.07065709122 0.0
0.982321540791 4.33437358971 0.0
0.725600576914 4.66999651799 0.0
0.812291456186 4.16642942492 0.0
0.335887692543 4.33918235669 0.0
1.26344844681 4.34017131907 0.0
1.23449730504 4.49457441524 0.0
1.34334172095 4.40539551957 0.0
0.256658279045 4.40539551957 0.0
0.741646926828 4.34287908527 0.0
0.674799084703 4.16673768522 0.0
1.18647435526 4.30955189749 0.0
0.360563250283 4.49596479569 0.0
0.873716483853 4.33845499203 0.0
0.418704489949 4.31146264283 0.0
0.492670911224 4.22931614809 0.0
0.403480880356 4.19046776931 0.0
1.19651541215 4.1904686246 0.0
0.728649253738 4.46214546491 0.0
1.00883674467 4.40174664879 0.0
1.11035034557 4.23161841276 0.0
0.261968539765 4.3130079512 0.0
1.33803146023 4.3130079512 0.0
0.74649980488 4.1318354354 0.0
0.927597725248 4.1577597079 0.0
0.892956618256 4.07619338913 0.0
0.659794281787 4.07951387326 0.0
0.587663534405 4.09486537006 0.0
0.942353209926 4.07935300973 0.0
1.01493747319 4.09476013719 0.0
0.613130017774 4.41369803882 0.0
0.449373501074 4.15377191978 0.0
0.514840228377 4.12225850006 0.0
0.497057592 4.41333092106 0.0
1.15061382426 4.15379293084 0.0
1.08514419473 4.12228328152 0.0
0.745617635771 4.23098957592 0.0
0.87523452213 4.59853036549 0.0
0.855262884783 4.2258970831 0.0
1.01126200032 4.53280064162 0.0
1.09391916408 4.40632408872 0.0
1.04436265455 4.71482000827 0.0
0.314320181089 4.38773968607 0.0
1.28649331902 4.38743720145 0.0
0.771211579291 4.06316862024 0.0
0.432259099658 4.24006002157 0.0
0.698583889427 4.07144353526 0.0
1.16802128371 4.238862881 0.0
1.09587629216 4.3086676659 0.0
1.35920470355 4.35666960471 0.0
0.240795296449 4.35666960471 0.0
0.504003580654 4.30815758118 0.0
0.579942709371 4.5342075073 0.0
0.875915224914 4.12815792528 0.0
0.426503136644 4.40717733008 0.0
0.57541416445 4.30365301522 0.0
0.683877978289 4.33161848113 0.0
0.888061695889 4.44633509246 0.0
0.26012287522 4.49859249103 0.0
1.33987712478 4.49859249103 0.0
0.801393572636 4.37060096582 0.0
0.558460082533 4.72496728209 0.0
1.1741923373 4.41132830101 0.0
0.83220012886 4.12779415912 0.0
1.02815069622 4.30053276509 0.0
0.948308583502 4.2880204454 0.0
0.846588933095 4.50834596945 0.0
0.343666800815 4.43485820652 0.0
1.25632767671 4.43480360053 0.0
0.97849585731 4.47031535602 0.0
1.10170977548 4.51507265998 0.0
0.662193131828 4.26809398492 0.0
0.400503668388 4.26881657105 0.0
1.20117145985 4.26130427377 0.0
0.350957892513 4.21796558019 0.0
1.24904210749 4.21796558019 0.0
0.771964652188 4.18905379403 0.0
0.932165148285 4.72736281402 0.0
0.373672364094 4.73321357765 0.0
0.760245937722 4.28409350779 0.0
0.848718469252 4.05767763075 0.0
1.23385612561 4.7358294747 0.0
0.846421485813 4.28065918421 0.0
0.651597058631 4.13043284014 0.0
0.650489852552 4.72138045504 0.0
0.58457834847 4.16375088261 0.0
0.48701309933 4.18859927013 0.0
0.708495738406 4.58856947756 0.0
1.11203398596 4.18878062515 0.0
0.54865558244 4.10250047869 0.0
1.05126102377 4.10234629471 0.0
0.300013757486 4.26259646442 0.0
1.29998624251 4.26259646442 0.0
0.9465032388 4.12718070354 0.0
0.708587583337 4.14146095907 0.0
0.973348904468 4.19537871864 0.0
0.628721855632 4.19538356945 0.0
0.380175010018 4.34021880077 0.0
0.662092932411 4.45899041267 0.0
1.05133526787 4.22221992007 0.0
0.528087045766 4.64327882187 0.0
1.22233124543 4.33521693908 0.0
1.19001193434 4.36273586668 0.0
0.853024099244 4.39544003492 0.0
0.542800296246 4.22324366905 0.0
0.247706318737 4.45239119247 0.0
1.35229368126 4.45239119247 0.0
0.599153768578 4.12953797005 0.0
1.01616570494 4.16227683178 0.0
0.744705786938 4.40569544575 0.0
1.31929001115 4.73702550052 0.0
0.777615355331 4.15113602511 0.0
1.33132411895 4.60631378639 0.0
0.265621610877 4.60975488866 0.0
0.532023338888 4.15374454388 0.0
1.0697792195 4.15241429251 0.0
0.286371037106 4.73010312914 0.0
0.497725885905 4.50153668256 0.0
0.46053455822 4.31587947599 0.0
0.433799237968 4.54629400991 0.0
0.388624781906 4.65094200004 0.0
0.554823673752 4.40451940232 0.0
1.1421595646 4.31818301431 0.0
1.14760043966 4.61655103139 0.0
1.21258698805 4.65320200685 0.0
1.16279096046 4.53292621409 0.0
0.995762647814 4.12508772517 0.0
0.456229040627 4.61456685246 0.0
0.707289391156 4.21520271873 0.0
0.763036833302 4.74285445535 0.0
0.78386198569 4.49787013126 0.0
[...]
POINT_DATA 999
VECTORS Displacement float
0.277276554011 -0.196196724905 0
0.28272905141 -0.196192959551 0
0.28 -0.2 0
0.28 -0.2 0
0.282966409614 -0.196176610437 0
0.28319453552 -0.196155305935 0
0.283398983025 -0.196130784451 0
0.283572936382 -0.196123172417 0
0.283679703867 -0.196142155341 0
0.283748367714 -0.196198291687 0
0.283719249209 -0.196300252651 0
0.283585058842 -0.196457746855 0
0.283330183768 -0.196712385174 0
0.282902915814 -0.197089048838 0
0.282281570393 -0.197654174609 0
0.28138265751 -0.198509810365 0
0.28 -0.2 0
0.28 -0.2 0
0.28 -0.2 0
0.28 -0.2 0
0.28 -0.2 0
0.28 -0.2 0
0.28 -0.2 0
0.28 -0.2 0
0.28 -0.2 0
0.28 -0.2 0
0.28 -0.2 0
0.28 -0.2 0
0.28 -0.2 0
0.28 -0.2 0
0.28 -0.2 0
0.28 -0.2 0
0.28 -0.2 0
0.278628452699 -0.198520103257 0
0.277731607332 -0.197665265546 0
0.277083253368 -0.197097713188 0
0.276671327851 -0.19671615689 0
0.276420227295 -0.196459666655 0
0.27628480274 -0.196301736579 0
0.276255568876 -0.196201099634 0
0.276324742128 -0.196145561142 0
0.27643198489 -0.196126849398 0
0.276606242234 -0.196134540192 0
0.276810875484 -0.196159062804 0
0.277039113687 -0.196180370291 0
0.277472779695 -0.196067924667 0
0.277688650468 -0.195923765935 0
0.27792185326 -0.195755713837 0
0.278177084951 -0.195564231014 0
0.278453201205 -0.195341135693 0
0.278742124314 -0.195081049215 0
0.279048354422 -0.194786805052 0
0.279384524517 -0.194454631531 0
0.279747503726 -0.194054589309 0
0.28011803797 -0.193618518138 0
0.280516071669 -0.193111859976 0
0.280963543224 -0.192522422468 0
0.28143646202 -0.191801316864 0
0.281968597185 -0.190897149033 0
0.282481848742 -0.189788760831 0
0.282896001639 -0.188696190923 0
0.283209247421 -0.18763302601 0
0.283440608308 -0.186576742811 0
0.283596606837 -0.185583343147 0
0.283690573596 -0.184613688028 0
0.283727698442 -0.183699022115 0
0.283701411932 -0.182804541522 0
0.283621521831 -0.181994333479 0
0.283482382475 -0.181250974689 0
0.283309798054 -0.180566384786 0
0.283090106212 -0.179937171368 0
0.282844460118 -0.179371614028 0
0.28256294619 -0.178869213636 0
0.28226427068 -0.178433064236 0
0.281933336304 -0.178052026522 0
0.281586830437 -0.177741809195 0
0.281216163884 -0.177490435011 0
0.280839049075 -0.177299480348 0
0.280448520297 -0.177171034144 0
0.280017982128 -0.177046810486 0
0.279582054945 -0.177153873771 0
0.279179131852 -0.17729516567 0
0.278797008115 -0.177484769994 0
0.278430611533 -0.177736185823 0
0.278080844298 -0.178047441574 0
0.277747468345 -0.178425199531 0
0.277436994611 -0.178871343524 0
0.277164163428 -0.179369477593 0
0.276918986939 -0.179935743231 0
0.276700869936 -0.180569642148 0
0.276528373328 -0.181254282529 0
0.276391271659 -0.18199888349 0
0.276302007275 -0.182791082638 0
0.276276176125 -0.1836919632 0
0.276316197741 -0.184614244186 0
0.276409421801 -0.185580283937 0
0.276567078743 -0.186576278181 0
0.2767950527 -0.18762565192 0
0.277112632057 -0.188697327122 0
0.277522656435 -0.189781429225 0
0.278034514228 -0.190889187727 0
0.278566553834 -0.191794440604 0
0.279040542518 -0.192517637385 0
0.279488694431 -0.19310783661 0
0.279887142998 -0.193614823833 0
0.280257960231 -0.194051060999 0
0.28062114487 -0.194451213889 0
0.28095746277 -0.194783396012 0
0.281263784609 -0.195077630998 0
0.281552776534 -0.195337661862 0
0.281828854996 -0.195560643526 0
0.282083990765 -0.195752044805 0
0.282317088458 -0.195920061329 0
0.282532888224 -0.196064197101 0
0.282396049745 -0.192456536204 0
0.277661334538 -0.192444224343 0
0.280047311876 -0.185900348669 0
0.279025852836 -0.186200598637 0
0.283158467295 -0.193945391288 0
0.276844174677 -0.193955816987 0
0.280924506283 -0.186030142851 0
0.280115722124 -0.181829128134 0
0.279866478935 -0.181718559095 0
0.281830536444 -0.190268633203 0
0.278199115609 -0.19018708903 0
0.279867813997 -0.193763863145 0
0.277161150791 -0.196283488533 0
0.282830388089 -0.196372574234 0
0.280581199655 -0.182850013231 0
0.280038236165 -0.186309110711 0
0.279341742656 -0.18279509191 0
0.279974770014 -0.186304426949 0
0.277794802898 -0.193214309235 0
0.282210672195 -0.193193620867 0
0.27886502294 -0.18903659658 0
0.283016204551 -0.195162036102 0
0.276989470523 -0.195165336971 0
0.28007537959 -0.179635986337 0
0.281232125389 -0.18877056181 0
0.281239502538 -0.195749941105 0
0.281022254198 -0.180395007433 0
0.278651653865 -0.195796546405 0
0.279699122574 -0.189279399507 0
0.278977370609 -0.180369704742 0
0.280307487393 -0.189274822764 0
0.283563132456 -0.195523475583 0
0.276443207568 -0.195522499116 0
0.282129463933 -0.189829381672 0
0.277836854378 -0.189962943298 0
0.279473631401 -0.185169062205 0
0.280520928371 -0.184968559483 0
0.280137234347 -0.189937671573 0
0.281479947251 -0.183843709938 0
0.27854596921 -0.183827553121 0
0.280006662249 -0.183279683133 0
0.278708859536 -0.19283083883 0
0.279421038458 -0.179135606157 0
0.278962248181 -0.191992323712 0
0.28104280421 -0.191989459797 0
0.281160945313 -0.192947088157 0
0.282715932979 -0.191885202377 0
0.283030948197 -0.193991728387 0
0.276923091101 -0.194229937742 0
0.277290780688 -0.19187371466 0
0.280774304255 -0.179055685616 0
0.282380801687 -0.194734120336 0
0.277625091174 -0.194737599118 0
0.278646940019 -0.187897776073 0
0.279746703554 -0.183790990116 0
0.281353045976 -0.187903687872 0
0.282184647404 -0.195474103318 0
0.277639833008 -0.195171686486 0
0.281743557266 -0.181216504994 0
0.280200759406 -0.183609490898 0
0.276611183903 -0.196474354136 0
0.277631746236 -0.197791334587 0
0.283395059188 -0.196470547631 0
0.282399883483 -0.197774436244 0
0.278229660772 -0.181173995473 0
0.281176222191 -0.18686658176 0
0.278347856008 -0.197764290587 0
0.278832806645 -0.186863478346 0
0.281497318258 -0.198097465209 0
0.280241115926 -0.196945138454 0
0.279747355742 -0.185047662496 0
0.278488365722 -0.188278161759 0
0.278446807119 -0.193891684616 0
0.281559091817 -0.193888141126 0
0.280161219126 -0.184909069875 0
0.279879052068 -0.178349927657 0
0.281483927503 -0.188075971848 0
0.279517653021 -0.196521630476 0
0.279971419754 -0.181223922804 0
0.277125542693 -0.194211762275 0
0.282888360423 -0.194201969182 0
0.283353286206 -0.195339984554 0
0.283462336299 -0.195680920367 0
0.276542824346 -0.195684424507 0
0.279504278021 -0.187051022882 0
0.280323473083 -0.182157631913 0
0.282439337232 -0.192131013033 0
0.276627033458 -0.195406472187 0
0.280620791303 -0.186997339505 0
0.277559674575 -0.192026716572 0
0.279032486532 -0.188351527622 0
0.279851897942 -0.191228527574 0
0.28015298842 -0.191222979019 0
0.279285302619 -0.1908189416 0
0.281960055342 -0.190333358747 0
0.2810281889 -0.188497844324 0
0.277419458496 -0.195400970221 0
0.282586117799 -0.195397353915 0
0.280341607702 -0.180332271841 0
0.279565330478 -0.181921956707 0
0.27878128345 -0.179123810476 0
0.281804565199 -0.179957333998 0
0.282320010358 -0.18205222338 0
0.278178597146 -0.179993914324 0
0.277656264469 -0.182127231875 0
0.278211645412 -0.190372149954 0
0.281140699051 -0.18863890565 0
0.282097646142 -0.185180391396 0
0.27731553412 -0.192122216294 0
0.278865043771 -0.188634167986 0
0.277910526763 -0.185177382117 0
0.279843898184 -0.18342534684 0
0.280633304876 -0.194680610529 0
0.280145598231 -0.183265856928 0
0.281907702378 -0.193724534123 0
0.282610569085 -0.191813595458 0
0.281101380539 -0.197955409363 0
0.276712993212 -0.194901330131 0
0.283291955776 -0.194907741258 0
0.280429507586 -0.178211449009 0
0.278658775173 -0.190648317702 0
0.281411014088 -0.179113503608 0
0.281323032348 -0.19063726857 0
0.282054581912 -0.189737821241 0
0.283094763072 -0.195729761915 0
0.276910700594 -0.195733315583 0
0.277955927157 -0.189735104539 0
0.278034470448 -0.193838055572 0
0.279496673542 -0.180401439785 0
0.276942647148 -0.193255281017 0
0.278431572468 -0.187973204538 0
0.279057030329 -0.187135781251 0
0.280889056748 -0.190420997967 0
0.276353835636 -0.196138388639 0
0.283648006501 -0.196136525047 0
0.28001540425 -0.187796274856 0
0.278997053349 -0.198142054648 0
0.283072772479 -0.193333124813 0
0.279787800852 -0.18008552544 0
0.281570943154 -0.187958757934 0
0.280947319259 -0.186188039194 0
0.280465220434 -0.1920972809 0
0.276577512126 -0.194895022329 0
0.283427444618 -0.194890843411 0
0.281740195723 -0.191817053477 0
0.282614003683 -0.194210669003 0
0.279263597718 -0.185430812685 0
0.278100027348 -0.192035720938 0
0.281778840276 -0.192012537911 0
0.279138966989 -0.193277043492 0
0.280866836743 -0.193273206173 0
0.280015790751 -0.181969578802 0
0.280580339704 -0.197968586244 0
0.27866450228 -0.19870969897 0
0.279757461668 -0.185073478541 0
0.279248170472 -0.178182996412 0
0.281309301264 -0.198755803546 0
0.280280451363 -0.184988130192 0
0.280962665192 -0.181494702369 0
0.279318387664 -0.197870466245 0
0.280582110332 -0.183929223118 0
0.279981442127 -0.187696008247 0
0.279224231589 -0.194467829176 0
0.280028351484 -0.187655428462 0
0.282502821292 -0.183481927843 0
0.277498933035 -0.183470001525 0
0.278206874284 -0.194659368664 0
0.281799220522 -0.194655906685 0
0.278999860604 -0.181370665916 0
0.280483716522 -0.180967825593 0
0.280044843655 -0.183839726225 0
0.279966126591 -0.183802652411 0
0.277186120663 -0.193298471377 0
0.278636044273 -0.191140112583 0
0.280654103557 -0.186455645728 0
0.278227826928 -0.196613672693 0
0.282779715505 -0.193298373791 0
0.28291272906 -0.192918956822 0
0.280515542592 -0.188695041446 0
0.279319354778 -0.186657124088 0
0.276348089088 -0.195942658137 0
0.283656066055 -0.19593916864 0
0.281314159672 -0.182634814133 0
0.279391367229 -0.183900367947 0
0.279459538706 -0.189023924795 0
0.28144385761 -0.198739915958 0
0.280095667038 -0.180767206758 0
0.283104282028 -0.197046449955 0
0.276917090024 -0.197084460367 0
0.280967108028 -0.185263519023 0
0.278995475912 -0.18529036041 0
0.278477197394 -0.198661794429 0
0.277346223477 -0.193941265099 0
0.277667403067 -0.190999086773 0
0.277131611257 -0.195462435223 0
0.277726712468 -0.197439922682 0
0.277748428431 -0.190962693346 0
0.282374203589 -0.191106170413 0
0.282333764931 -0.196546994178 0
0.282257665553 -0.197475699042 0
0.282912661812 -0.195195439292 0
0.278621990231 -0.18237842841 0
0.277674485765 -0.196488779741 0
0.279840588713 -0.183233701616 0
0.279852934383 -0.198224078332 0
0.279842541292 -0.191746149936 0
0.281026496656 -0.187284394844 0
0.280823856729 -0.190202015945 0
0.28013080212 -0.183079851328 0
0.279180194713 -0.190195742105 0
0.283523147048 -0.195830398028 0
0.28101894442 -0.178415903479 0
0.27783339596 -0.194070723575 0
0.28217284951 -0.194067154454 0
0.279753767479 -0.192475576943 0
0.280251637099 -0.192471118856 0
0.278149242893 -0.192115607576 0
0.27705029189 -0.192981877003 0
0.280368611447 -0.179109449671 0
0.279186402741 -0.193017497374 0
0.27837146249 -0.192981589559 0
0.281635030935 -0.192975413102 0
0.276489439926 -0.195786708222 0
0.283282853301 -0.194453641765 0
0.280623909274 -0.18499158056 0
0.277838897947 -0.195209171475 0
0.2821669891 -0.195205635754 0
0.281624591681 -0.197052374455 0
0.276734675473 -0.19444527543 0
0.27718802954 -0.195775311943 0
0.282817530755 -0.195771695899 0
0.282342610475 -0.180754668139 0
0.280014691968 -0.182293576841 0
0.282916845657 -0.196929957287 0
0.277075778751 -0.196929079858 0
0.278452960702 -0.188973472744 0
0.280799998204 -0.17992739609 0
0.280016994769 -0.184290775687 0
0.279785062603 -0.179199282224 0
0.282440657216 -0.190831870135 0
0.281574428628 -0.189026234518 0
0.278829755698 -0.186871294815 0
0.278282021775 -0.179091512249 0
0.27770660163 -0.180791544273 0
0.282770692824 -0.193292793727 0
0.277171475502 -0.194762760352 0
0.282834806737 -0.194758174295 0
0.281276104332 -0.194253700242 0
0.277555559742 -0.19086059862 0
0.278974897191 -0.186606728587 0
0.279628502358 -0.1849618612 0
0.278603044396 -0.194223924821 0
0.279867470839 -0.195869381624 0
0.28200148024 -0.186936215296 0
0.278006274857 -0.186932640744 0
0.278885584892 -0.189497947904 0
0.281035701894 -0.189453487731 0
0.27645369963 -0.196463037788 0
0.283550762098 -0.196460072714 0
0.279367946765 -0.185163942442 0
0.281073310587 -0.186758793691 0
0.280220752304 -0.185231730664 0
0.281717026076 -0.195434496068 0
0.27886538375 -0.1784366136 0
0.281378202388 -0.190484769646 0
0.283328649634 -0.195867195287 0
0.276676666177 -0.195870761579 0
0.279436341404 -0.190521104824 0
0.279184566396 -0.179672871538 0
0.28056894108 -0.190515736382 0
0.279571084171 -0.184312853431 0
0.280710444798 -0.196363971989 0
0.280858034028 -0.198854987926 0
0.282291727405 -0.190934298811 0
0.278081285252 -0.18949412323 0
0.283318195017 -0.195293539105 0
0.276687429835 -0.195297223892 0
0.283209725321 -0.196138907824 0
0.276780624279 -0.196103072805 0
0.279421140394 -0.181035986374 0
0.282073948637 -0.191336689645 0
0.281927397484 -0.179149130185 0
0.280108737294 -0.177757697053 0
0.279850415043 -0.181050651604 0
0.277055483267 -0.193214202762 0
0.277940970035 -0.191493480418 0
0.278971028038 -0.193947394882 0
0.281034809204 -0.193943758667 0
0.280298229408 -0.187179549207 0
0.280367596616 -0.184043300061 0
0.279581415667 -0.177941433658 0
0.282413257359 -0.197826033437 0
0.277395250015 -0.193858146588 0
0.282593545342 -0.193855501151 0
0.281778405128 -0.189030214044 0
0.277401440654 -0.197636267819 0
0.279192104651 -0.198926992059 0
0.282862785968 -0.19248454728 0
0.278114162112 -0.195579166738 0
0.280297978832 -0.182804171183 0
0.28158092627 -0.189056419714 0
0.281746831694 -0.18864608119 0
0.28042942698 -0.184893468032 0
0.281265311079 -0.18701477895 0
0.278529599018 -0.18911951352 0
0.276866742187 -0.195175192307 0
0.281430023145 -0.180757493964 0
0.281176937493 -0.182098149369 0
0.276929168222 -0.194746973134 0
0.283075753822 -0.194758171105 0
0.278646031542 -0.194435409843 0
0.281359815963 -0.19443198608 0
0.279855154844 -0.182191084764 0
0.28231154151 -0.192620364257 0
0.282310443927 -0.19367147969 0
0.27972738181 -0.182827920918 0
0.27823369201 -0.188708494737 0
0.27953047133 -0.185787066376 0
0.277465794083 -0.192867456663 0
0.277136541192 -0.195487997174 0
0.282868976277 -0.195484500843 0
0.280249034197 -0.198416594375 0
0.280610265066 -0.186323784411 0
0.280575809531 -0.187933962848 0
0.277151687704 -0.192465946651 0
0.280526681523 -0.185741041006 0
0.278539979037 -0.180731859839 0
0.277332475659 -0.192907706533 0
0.280615659472 -0.18717018659 0
0.280887349736 -0.199061588452 0
0.282891596205 -0.182605978598 0
0.279441157768 -0.187937931469 0
0.27916635197 -0.196179581219 0
0.28017117237 -0.18104460074 0
0.279487455209 -0.186443346082 0
0.279877699385 -0.184054726642 0
0.282845524913 -0.184209261519 0
0.277072562401 -0.182600689005 0
0.279441005351 -0.18716287044 0
0.277161613396 -0.184203393667 0
0.279988232914 -0.180393126259 0
0.280141227449 -0.183991286637 0
0.280170603038 -0.178667456722 0
0.283576720734 -0.195924441442 0
0.276428093574 -0.195927892399 0
0.282788383634 -0.181148417625 0
0.282443827304 -0.18002351291 0
0.279718333525 -0.19878542148 0
0.277583657657 -0.180018944418 0
0.277225618593 -0.181184360742 0
0.282666704299 -0.186055808804 0
0.282168801267 -0.187896649199 0
0.280082591375 -0.182391316186 0
0.277340925864 -0.18605347159 0
0.277838428813 -0.187892397889 0
0.283195554041 -0.194822703351 0
0.281448071571 -0.196594686314 0
0.279827963399 -0.186887568768 0
0.280838822323 -0.177905973865 0
0.278661256938 -0.179669689177 0
0.281451457734 -0.178360055661 0
0.280685042651 -0.181232818401 0
0.28297948616 -0.193827039703 0
0.283314801475 -0.195592445142 0
0.276690576961 -0.195595935711 0
0.277677093927 -0.193601440327 0
0.283465440281 -0.195283574531 0
0.27653963449 -0.195286952662 0
0.280350055892 -0.19358838801 0
0.279338754498 -0.185588260462 0
0.280523996562 -0.198763299871 0
0.279554570405 -0.178682210364 0
0.280800421552 -0.188379153711 0
0.280532024591 -0.191717467833 0
0.279472438916 -0.191711630098 0
0.276860200178 -0.194371724211 0
0.280800462992 -0.186118940492 0
0.278341335339 -0.182945008469 0
0.280230393895 -0.18377784581 0
0.28254590932 -0.195620627969 0
0.279966022893 -0.182491561132 0
0.279196311274 -0.186030570299 0
0.281416598618 -0.179779831396 0
0.280005517268 -0.182130692708 0
0.276762653981 -0.194038010986 0
0.279081958011 -0.189751423685 0
0.279595434935 -0.179983111505 0
0.279685430211 -0.190211498295 0
0.279138763885 -0.187878855371 0
0.281907186434 -0.184275033769 0
0.280131254656 -0.190097504122 0
0.27987389343 -0.190091821286 0
0.27810378214 -0.184270440857 0
0.280286519192 -0.186069152371 0
0.280501310206 -0.1795894489 0
0.281988317079 -0.183072259045 0
0.283510304548 -0.195380148884 0
0.276497815452 -0.195355708029 0
0.279195762881 -0.199138478813 0
0.279722657236 -0.183774840972 0
0.283237484327 -0.194012590342 0
0.280257797555 -0.17974806898 0
0.278411927995 -0.178579107377 0
0.277239902425 -0.195134149301 0
0.282765369228 -0.195130597318 0
0.277621496896 -0.195638818719 0
0.282384216554 -0.195635179449 0
0.279166116094 -0.179094036612 0
0.277275000951 -0.192277013903 0
0.281729609959 -0.181965964646 0
0.28312974634 -0.195774727919 0
0.280670817533 -0.185891654629 0
0.278739301256 -0.181683491637 0
0.283144672942 -0.194370926107 0
0.277043306633 -0.195931733702 0
0.282962211684 -0.195928080543 0
0.28074733304 -0.193176965223 0
0.282035647915 -0.191547969759 0
0.281348957305 -0.185798517039 0
0.277474331853 -0.194346210374 0
0.282531529444 -0.194341844615 0
0.278545448533 -0.191569921522 0
0.27995461962 -0.182858715778 0
0.281417298162 -0.191590371688 0
0.280669599172 -0.18518371412 0
0.280682367555 -0.17852414635 0
0.277558039819 -0.19106606894 0
0.278667884123 -0.185824072615 0
0.279342673331 -0.191351057927 0
0.280662692868 -0.191346012698 0
0.281619433735 -0.19308693958 0
0.278600139023 -0.189338020099 0
0.2791242519 -0.199244785623 0
0.278232195564 -0.195045288636 0
0.281773805365 -0.195041847171 0
0.280978859766 -0.17936308177 0
0.281472393843 -0.189489645461 0
0.278531459961 -0.18948415419 0
0.27969103046 -0.184481271463 0
0.280046372097 -0.18291990219 0
0.279364156269 -0.198587214737 0
0.279434246785 -0.188674324291 0
0.27894006248 -0.19171543056 0
0.282672647436 -0.192053365305 0
0.280500630441 -0.190823706826 0
0.280576990141 -0.188726495412 0
0.280317372145 -0.184357560761 0
0.283572229446 -0.195675184165 0
0.276432739625 -0.195678740282 0
0.278896347734 -0.187844070608 0
0.278089341027 -0.193562306515 0
0.281914009226 -0.193547699983 0
0.282005870441 -0.190009259419 0
0.278666680215 -0.193376550458 0
0.281321264494 -0.193357226279 0
0.276304929009 -0.196097755617 0
0.28369891441 -0.196094899773 0
0.27876197443 -0.186959256762 0
0.280963667555 -0.197210335362 0
0.282994816121 -0.193291785949 0
0.280868681547 -0.191832563947 0
0.281427500765 -0.189416236904 0
0.280035146008 -0.182519375938 0
0.279722132551 -0.185639889184 0
0.277854744961 -0.179335750516 0
0.282051633456 -0.192685547578 0
0.283317513657 -0.194503607983 0
0.276685958895 -0.19451012786 0
0.277748061416 -0.192232449653 0
0.278004211834 -0.19000165652 0
0.280357002067 -0.184289967907 0
0.27863618473 -0.190158832731 0
0.279672608038 -0.181338482695 0
0.281595736697 -0.189909242533 0
0.281011705315 -0.189479477939 0
0.279649042178 -0.194721406269 0
0.281141499934 -0.187975902314 0
0.281946484202 -0.180526324679 0
0.281854544973 -0.188937544076 0
0.282916072573 -0.192689937826 0
0.280315967064 -0.195695697513 0
0.278305736962 -0.188524275035 0
0.279662487445 -0.187958249676 0
0.278937105001 -0.197355605674 0
0.278304160408 -0.193119088136 0
0.278602725965 -0.187631938531 0
0.279707508545 -0.183929392386 0
0.278723733563 -0.188098751831 0
0.277892436508 -0.191479577439 0
0.278059627498 -0.180517655016 0
0.277879436642 -0.181506198455 0
0.276846288431 -0.195976603728 0
0.283159142497 -0.195972948106 0
0.283648804509 -0.195896671267 0
0.276355278537 -0.195901393506 0
0.280415722977 -0.177683056996 0
0.280308033123 -0.181009061517 0
0.281386481174 -0.187635291459 0
0.27988662296 -0.182767389816 0
0.282064162162 -0.194605322657 0
0.278570450774 -0.197713206081 0
0.283092240925 -0.193464431827 0
0.280253527985 -0.183685314476 0
0.280103422433 -0.185790442962 0
0.28118677952 -0.187221626032 0
0.27850839587 -0.190152729133 0