# vtk DataFile Version 2.0
Generated with Solid Solver
ASCII
DATASET UNSTRUCTURED_GRID
POINTS 999 float 
0.2 4.325 0.0
1.4 4.325 0.0
1.4 4.825 0.0
0.2 4.825 0.0
1.4 4.34523264049 0.0
1.4 4.36751203886 0.0
1.4 4.39204525371 0.0
1.4 4.4190602782 0.0
1.4 4.44880817466 0.0
1.4 4.48156541084 0.0
1.4 4.51763640748 0.0
1.4 4.5573564007 0.0
1.4 4.60109451608 0.0
1.4 4.64925723872 0.0
1.4 4.70229217343 0.0
1.4 4.76069218095 0.0
1.33333333333 4.825 0.0
1.26666666667 4.825 0.0
1.2 4.825 0.0
1.13333333333 4.825 0.0
1.06666666667 4.825 0.0
1.0 4.825 0.0
0.933333333334 4.825 0.0
0.866666666668 4.825 0.0
0.800000000001 4.825 0.0
0.733333333334 4.825 0.0
0.666666666668 4.825 0.0
0.600000000001 4.825 0.0
0.533333333334 4.825 0.0
0.466666666667 4.825 0.0
0.4 4.825 0.0
0.333333333334 4.825 0.0
0.266666666667 4.825 0.0
0.2 4.76069218095 0.0
0.2 4.70229217343 0.0
0.2 4.64925723872 0.0
0.2 4.60109451608 0.0
0.2 4.5573564007 0.0
0.2 4.51763640748 0.0
0.2 4.48156541084 0.0
0.2 4.44880817466 0.0
0.2 4.4190602782 0.0
0.2 4.39204525371 0.0
0.2 4.36751203886 0.0
0.2 4.34523264049 0.0
0.212131543907 4.30926329506 0.0
0.224675715302 4.29385348652 0.0
0.23762369102 4.27878141198 0.0
0.250966423879 4.26405760374 0.0
0.264694484585 4.24969246611 0.0
0.278798324214 4.23569599189 0.0
0.293267939266 4.22207810803 0.0
0.308093289028 4.20884826442 0.0
0.323263842145 4.19601585877 0.0
0.338769084145 4.18358978512 0.0
0.354597997314 4.17157887342 0.0
0.37073960121 4.15999145532 0.0
0.387182441982 4.14883575334 0.0
0.403915091795 4.13811952025 0.0
0.420925712897 4.12785033813 0.0
0.438202430937 4.11803537461 0.0
0.455733079095 4.10868154223 0.0
0.473505374364 4.09979539439 0.0
0.491506842655 4.09138316882 0.0
0.509724826085 4.0834507802 0.0
0.528146580414 4.07600377808 0.0
0.546759103951 4.06904741762 0.0
0.56554943677 4.06258654322 0.0
0.584504260001 4.05662573401 0.0
0.60361041518 4.0511691282 0.0
0.622854334779 4.04622060039 0.0
0.642222678753 4.04178358113 0.0
0.661701681839 4.03786122392 0.0
0.681277836375 4.03445624851 0.0
0.700937245817 4.03157107217 0.0
0.720666255912 4.02920769845 0.0
0.740450894784 4.02736780161 0.0
0.76027736978 4.02605266363 0.0
0.780131702711 4.02526321235 0.0
0.799999999998 4.025 0.0
0.819868297285 4.02526321235 0.0
0.839722630216 4.02605266363 0.0
0.859549105212 4.02736780161 0.0
0.879333744085 4.02920769845 0.0
0.89906275418 4.03157107217 0.0
0.918722163621 4.03445624851 0.0
0.938298318157 4.03786122392 0.0
0.957777321244 4.04178358113 0.0
0.977145665218 4.04622060039 0.0
0.996389584817 4.0511691282 0.0
1.01549574 4.05662573401 0.0
1.03445056323 4.06258654322 0.0
1.05324089605 4.06904741762 0.0
1.07185341958 4.07600377808 0.0
1.09027517391 4.0834507802 0.0
1.10849315734 4.09138316882 0.0
1.12649462563 4.09979539439 0.0
1.1442669209 4.10868154222 0.0
1.16179756906 4.1180353746 0.0
1.1790742871 4.12785033813 0.0
1.1960849082 4.13811952024 0.0
1.21281755802 4.14883575334 0.0
1.22926039879 4.15999145532 0.0
1.24540200269 4.17157887342 0.0
1.26123091585 4.18358978512 0.0
1.27673615785 4.19601585877 0.0
1.29190671097 4.20884826442 0.0
1.30673206073 4.22207810803 0.0
1.32120167579 4.23569599189 0.0
1.33530551541 4.24969246611 0.0
1.34903357612 4.26405760374 0.0
1.36237630898 4.27878141198 0.0
1.3753242847 4.29385348652 0.0
1.38786845609 4.30926329506 0.0
1.05632730172 4.46025283906 0.0
0.549964048968 4.4630053958 0.0
0.806135520676 4.31186690218 0.0
0.603895783049 4.26079310371 0.0
1.22984770884 4.38318704125 0.0
0.3703382852 4.38423552752 0.0
0.995322815839 4.25565031136 0.0
0.728315816804 4.1765935937 0.0
0.872128173905 4.17288724072 0.0
1.14059401893 4.27298468684 0.0
0.461553191009 4.27181671009 0.0
0.784706775856 4.56821390922 0.0
0.398287125272 4.57945970538 0.0
1.20625306554 4.58334743514 0.0
0.624100842742 4.1589824436 0.0
0.5257453845 4.18811776279 0.0
0.978502430793 4.15488737058 0.0
1.07419209812 4.18825154482 0.0
0.364313698077 4.28677035763 0.0
1.23509538257 4.28681716733 0.0
0.68124123937 4.39284548972 0.0
1.31679378691 4.35012066749 0.0
0.283206213094 4.35012066749 0.0
0.791498533126 4.11467141721 0.0
0.931481076052 4.3801344917 0.0
0.966719065571 4.62778042839 0.0
0.684451667517 4.11068036752 0.0
0.618335406951 4.62686910993 0.0
0.450982331762 4.19686171732 0.0
0.915674266355 4.10995633851 0.0
1.14900051594 4.19689012964 0.0
1.30193709687 4.4481448133 0.0
0.298574667609 4.44816296922 0.0
1.05734787542 4.34990107617 0.0
0.539273225177 4.35252599628 0.0
0.709896798149 4.27721026287 0.0
0.895708916005 4.26924194389 0.0
0.813273511364 4.43835766235 0.0
0.559289631452 4.13230879113 0.0
1.04001407307 4.13281539633 0.0
0.801161810585 4.23146244955 0.0
0.665113819616 4.52056650186 0.0
0.852577362173 4.09111846388 0.0
0.390256727869 4.2242806298 0.0
1.20974450479 4.22428104599 0.0
0.921542541183 4.52778058719 0.0
1.14030889032 4.36437344809 0.0
1.15600477272 4.46808538305 0.0
0.435243219029 4.4750581257 0.0
0.462045157798 4.36654654286 0.0
0.735806812738 4.08472269746 0.0
1.30082934537 4.29793772796 0.0
0.299170654625 4.29793772796 0.0
0.533651712118 4.26265983853 0.0
0.666130919144 4.21652131559 0.0
1.0676097303 4.26179469382 0.0
1.08054433577 4.58530946155 0.0
0.506773767255 4.56568295079 0.0
0.626745312844 4.10124420826 0.0
0.933845304214 4.2106954732 0.0
0.293717639664 4.55175000185 0.0
0.312505022079 4.66426411351 0.0
1.3058164124 4.55154930624 0.0
1.29054387065 4.66302765963 0.0
0.973467966326 4.09941619478 0.0
0.487935413164 4.15087084015 0.0
0.461549079751 4.68836834982 0.0
1.11203248746 4.15093503889 0.0
1.14453515393 4.70617370303 0.0
0.840217564202 4.68891146633 0.0
0.585347033288 4.20539048534 0.0
0.619177396637 4.34227576306 0.0
0.331644410315 4.24962190462 0.0
1.26835558968 4.24962190462 0.0
1.01536156978 4.19987473052 0.0
0.809331033562 4.07065709122 0.0
0.982321540791 4.33437358971 0.0
0.725600576914 4.66999651799 0.0
0.812291456186 4.16642942492 0.0
0.335887692543 4.33918235669 0.0
1.26344844681 4.34017131907 0.0
1.23449730504 4.49457441524 0.0
1.34334172095 4.40539551957 0.0
0.256658279045 4.40539551957 0.0
0.741646926828 4.34287908527 0.0
0.674799084703 4.16673768522 0.0
1.18647435526 4.30955189749 0.0
0.360563250283 4.49596479569 0.0
0.873716483853 4.33845499203 0.0
0.418704489949 4.31146264283 0.0
0.492670911224 4.22931614809 0.0
0.403480880356 4.19046776931 0.0
1.19651541215 4.1904686246 0.0
0.728649253738 4.46214546491 0.0
1.00883674467 4.40174664879 0.0
1.11035034557 4.23161841276 0.0
0.261968539765 4.3130079512 0.0
1.33803146023 4.3130079512 0.0
0.74649980488 4.1318354354 0.0
0.927597725248 4.1577597079 0.0
0.892956618256 4.07619338913 0.0
0.659794281787 4.07951387326 0.0
0.587663534405 4.09486537006 0.0
0.942353209926 4.07935300973 0.0
1.01493747319 4.09476013719 0.0
0.613130017774 4.41369803882 0.0
0.449373501074 4.15377191978 0.0
0.514840228377 4.12225850006 0.0
0.497057592 4.41333092106 0.0
1.15061382426 4.15379293084 0.0
1.08514419473 4.12228328152 0.0
0.745617635771 4.23098957592 0.0
0.87523452213 4.59853036549 0.0
0.855262884783 4.2258970831 0.0
1.01126200032 4.53280064162 0.0
1.09391916408 4.40632408872 0.0
1.04436265455 4.71482000827 0.0
0.314320181089 4.38773968607 0.0
1.28649331902 4.38743720145 0.0
0.771211579291 4.06316862024 0.0
0.432259099658 4.24006002157 0.0
0.698583889427 4.07144353526 0.0
1.16802128371 4.238862881 0.0
1.09587629216 4.3086676659 0.0
1.35920470355 4.35666960471 0.0
0.240795296449 4.35666960471 0.0
0.504003580654 4.30815758118 0.0
0.579942709371 4.5342075073 0.0
0.875915224914 4.12815792528 0.0
0.426503136644 4.40717733008 0.0
0.57541416445 4.30365301522 0.0
0.683877978289 4.33161848113 0.0
0.888061695889 4.44633509246 0.0
0.26012287522 4.49859249103 0.0
1.33987712478 4.49859249103 0.0
0.801393572636 4.37060096582 0.0
0.558460082533 4.72496728209 0.0
1.1741923373 4.41132830101 0.0
0.83220012886 4.12779415912 0.0
1.02815069622 4.30053276509 0.0
0.948308583502 4.2880204454 0.0
0.846588933095 4.50834596945 0.0
0.343666800815 4.43485820652 0.0
1.25632767671 4.43480360053 0.0
0.97849585731 4.47031535602 0.0
1.10170977548 4.51507265998 0.0
0.662193131828 4.26809398492 0.0
0.400503668388 4.26881657105 0.0
1.20117145985 4.26130427377 0.0
0.350957892513 4.21796558019 0.0
1.24904210749 4.21796558019 0.0
0.771964652188 4.18905379403 0.0
0.932165148285 4.72736281402 0.0
0.373672364094 4.73321357765 0.0
0.760245937722 4.28409350779 0.0
0.848718469252 4.05767763075 0.0
1.23385612561 4.7358294747 0.0
0.846421485813 4.28065918421 0.0
0.651597058631 4.13043284014 0.0
0.650489852552 4.72138045504 0.0
0.58457834847 4.16375088261 0.0
0.48701309933 4.18859927013 0.0
0.708495738406 4.58856947756 0.0
1.11203398596 4.18878062515 0.0
0.54865558244 4.10250047869 0.0
1.05126102377 4.10234629471 0.0
0.300013757486 4.26259646442 0.0
1.29998624251 4.26259646442 0.0
0.9465032388 4.12718070354 0.0
0.708587583337 4.14146095907 0.0
0.973348904468 4.19537871864 0.0
0.628721855632 4.19538356945 0.0
0.380175010018 4.34021880077 0.0
0.662092932411 4.45899041267 0.0
1.05133526787 4.22221992007 0.0
0.528087045766 4.64327882187 0.0
1.22233124543 4.33521693908 0.0
1.19001193434 4.36273586668 0.0
0.853024099244 4.39544003492 0.0
0.542800296246 4.22324366905 0.0
0.247706318737 4.45239119247 0.0
1.35229368126 4.45239119247 0.0
0.599153768578 4.12953797005 0.0
1.01616570494 4.16227683178 0.0
0.744705786938 4.40569544575 0.0
1.31929001115 4.73702550052 0.0
0.777615355331 4.15113602511 0.0
1.33132411895 4.60631378639 0.0
0.265621610877 4.60975488866 0.0
0.532023338888 4.15374454388 0.0
1.0697792195 4.15241429251 0.0
0.286371037106 4.73010312914 0.0
0.497725885905 4.50153668256 0.0
0.46053455822 4.31587947599 0.0
0.433799237968 4.54629400991 0.0
0.388624781906 4.65094200004 0.0
0.554823673752 4.40451940232 0.0
1.1421595646 4.31818301431 0.0
1.14760043966 4.61655103139 0.0
1.21258698805 4.65320200685 0.0
1.16279096046 4.53292621409 0.0
0.995762647814 4.12508772517 0.0
0.456229040627 4.61456685246 0.0
0.707289391156 4.21520271873 0.0
0.763036833302 4.74285445535 0.0
0.78386198569 4.49787013126 0.0
[...]
POINT_DATA 999
VECTORS Displacement float
0.557399443795 -0.196263788425 0
0.562846190468 -0.196151248162 0
0.56 -0.2 0
0.56 -0.2 0
0.56307708028 -0.196135216527 0
0.563298165175 -0.196114474818 0
0.563495095047 -0.196090763321 0
0.563661096818 -0.196084164312 0
0.563759578206 -0.196104322178 0
0.563819372281 -0.196161880725 0
0.563781021613 -0.196265573931 0
0.563637087611 -0.196425373953 0
0.563372114569 -0.196682969848 0
0.56293446936 -0.197063637958 0
0.562302752371 -0.197634007659 0
0.561393586952 -0.198497686922 0
0.56 -0.2 0
0.56 -0.2 0
0.56 -0.2 0
0.56 -0.2 0
0.56 -0.2 0
0.56 -0.2 0
0.56 -0.2 0
0.56 -0.2 0
0.56 -0.2 0
0.56 -0.2 0
0.56 -0.2 0
0.56 -0.2 0
0.56 -0.2 0
0.56 -0.2 0
0.56 -0.2 0
0.56 -0.2 0
0.56 -0.2 0
0.558647379891 -0.19854136241 0
0.557765853613 -0.197699771428 0
0.557130946289 -0.197141429632 0
0.556731139058 -0.196766682508 0
0.556490850033 -0.196515034224 0
0.55636515402 -0.196360654608 0
0.556344469169 -0.196262623115 0
0.556421179472 -0.196209036496 0
0.556535158112 -0.196191728904 0
0.556715324419 -0.196200422234 0
0.55692521735 -0.19622557131 0
0.557158055071 -0.196247264759 0
0.557598658844 -0.196132865761 0
0.557817397501 -0.195986735693 0
0.558053427316 -0.195816796974 0
0.558311440577 -0.195623461659 0
0.558590308345 -0.195398557549 0
0.558881998756 -0.195136662945 0
0.559191000631 -0.194840609875 0
0.559529992989 -0.194506579165 0
0.559895880998 -0.194104586182 0
0.560269412862 -0.193666444318 0
0.560670641941 -0.193157445545 0
0.561121658642 -0.192565085331 0
0.561598974799 -0.191838936824 0
0.562133731266 -0.190932193915 0
0.562647416472 -0.189826542679 0
0.563066902559 -0.188726978486 0
0.563382579978 -0.187656163238 0
0.563607877182 -0.186613387426 0
0.563768575629 -0.185611997859 0
0.563861976263 -0.184642259452 0
0.563904041694 -0.183708554801 0
0.563864239867 -0.182848271997 0
0.563785763096 -0.182047450977 0
0.563653379907 -0.181296981693 0
0.56348246418 -0.180613842564 0
0.563264724374 -0.179985396728 0
0.563021066979 -0.1794201064 0
0.562741722688 -0.178916674147 0
0.562444990789 -0.178477987983 0
0.562115530491 -0.178094595015 0
0.561769881467 -0.177783055872 0
0.561399256467 -0.177527998353 0
0.561020543002 -0.177331577846 0
0.560627827294 -0.177168165658 0
0.560194931249 -0.177127513358 0
0.559768680527 -0.177232265774 0
0.559369314858 -0.177359700387 0
0.558987998752 -0.17754473787 0
0.558622200235 -0.177793605838 0
0.558273403429 -0.178104678468 0
0.557940990671 -0.178480737212 0
0.557630437837 -0.178921983159 0
0.557356956686 -0.179416535723 0
0.557110586015 -0.179979498548 0
0.55688757632 -0.18060480092 0
0.556702358692 -0.181269945661 0
0.556572925778 -0.182059423391 0
0.556503259548 -0.182895642172 0
0.556480028149 -0.183778359894 0
0.556517886977 -0.184687723033 0
0.556613177121 -0.185656050412 0
0.556771654911 -0.18665046483 0
0.557004954265 -0.187706227742 0
0.557320244267 -0.188768171051 0
0.557741999907 -0.189867795775 0
0.558250019114 -0.19095717958 0
0.558777564129 -0.191849486286 0
0.559237433179 -0.192548051687 0
0.5596751102 -0.193124859974 0
0.560064890101 -0.193622133393 0
0.560427985882 -0.194050605592 0
0.560783787738 -0.194443850599 0
0.561113399572 -0.194770352711 0
0.561413539054 -0.195059473559 0
0.561696623811 -0.1953148373 0
0.561966983869 -0.195533592607 0
0.562216632416 -0.195721078656 0
0.562444443153 -0.195885395904 0
0.562655095459 -0.196026001166 0
0.562480135205 -0.192481349741 0
0.557751076253 -0.192469172666 0
0.560177261148 -0.185937338772 0
0.559165722002 -0.186234346143 0
0.563258021043 -0.1939526104 0
0.556953183823 -0.193995151404 0
0.561075252703 -0.186077942922 0
0.560274105296 -0.181869560533 0
0.560030522743 -0.181765749807 0
0.561973062095 -0.19031119174 0
0.55833433678 -0.190221235367 0
0.559929301811 -0.193782340716 0
0.557221238753 -0.196307362131 0
0.562876133556 -0.196374463971 0
0.560741022584 -0.182889829081 0
0.560193397917 -0.186341688021 0
0.55951806572 -0.182844393812 0
0.560152022265 -0.186365264674 0
0.55792516608 -0.193257367106 0
0.562341595134 -0.19320734254 0
0.558973270967 -0.189065564255 0
0.563124734209 -0.195146028199 0
0.557106702801 -0.19521756227 0
0.560249278357 -0.179681684917 0
0.561343866664 -0.188805928617 0
0.561281781855 -0.195763132247 0
0.561189311928 -0.180437164367 0
0.558699008628 -0.195810397982 0
0.559850589075 -0.189313002156 0
0.55915361955 -0.180419442902 0
0.560483699114 -0.189334368264 0
0.563642603091 -0.195510909892 0
0.556538051871 -0.195567557776 0
0.562248235945 -0.189866902679 0
0.557954336148 -0.189993102239 0
0.559610617016 -0.18520488783 0
0.560663872216 -0.185011235957 0
0.560233329289 -0.189966296379 0
0.561646192968 -0.183879886239 0
0.558736887273 -0.183890696096 0
0.560156009272 -0.183320946485 0
0.558783658979 -0.192851806614 0
0.559598869252 -0.179190503498 0
0.559106037423 -0.192032517156 0
0.561200344589 -0.192022741454 0
0.56123052499 -0.192969238077 0
0.562825755149 -0.191912738327 0
0.563108509572 -0.194006144906 0
0.557009786311 -0.194258850422 0
0.557404149061 -0.191906095579 0
0.560947632683 -0.179095242424 0
0.562506717442 -0.194723587101 0
0.557753024153 -0.1947891104 0
0.558785727265 -0.187930199314 0
0.559896176538 -0.183828534633 0
0.561502844664 -0.187953425944 0
0.562233644214 -0.195486657986 0
0.557702927127 -0.195191320842 0
0.561910850563 -0.181260924062 0
0.560360216663 -0.183656349378 0
0.556680465725 -0.196511948918 0
0.557670956486 -0.197813624719 0
0.563447483655 -0.196457720528 0
0.562426725225 -0.197766931024 0
0.558411139415 -0.181218202016 0
0.561338395794 -0.186897373454 0
0.5583794535 -0.197775892638 0
0.559025838557 -0.186932468291 0
0.561517027711 -0.198100329189 0
0.56027160147 -0.196954564852 0
0.559899219695 -0.185082916134 0
0.558609066025 -0.188308767078 0
0.558584489158 -0.193939727537 0
0.561703485337 -0.193890988221 0
0.560330660551 -0.184962452509 0
0.560062109653 -0.178405296653 0
0.561609326156 -0.188116252569 0
0.559553952969 -0.196532431821 0
0.560135216636 -0.181269119876 0
0.557244784174 -0.194256956865 0
0.563000448907 -0.194202503031 0
0.563421055899 -0.195340480962 0
0.563554053791 -0.195657465656 0
0.556648253769 -0.195738718895 0
0.55962565758 -0.187084232493 0
0.560482034488 -0.182197719496 0
0.562564806296 -0.192157052873 0
0.556709183257 -0.195440312143 0
0.560744526232 -0.187034733188 0
0.557685296404 -0.192063582205 0
0.559178007393 -0.188384211494 0
0.560003567208 -0.191266312 0
0.560329632889 -0.191271896458 0
0.559375402291 -0.190844386613 0
0.562063690716 -0.19036642262 0
0.56118931545 -0.188552165104 0
0.557544501328 -0.195457654869 0
0.562706933497 -0.195374548418 0
0.560508913012 -0.180373593189 0
0.559735128687 -0.181969829561 0
0.558962823358 -0.179177862158 0
0.561975373404 -0.180002285696 0
0.562487340724 -0.182097202285 0
0.558360557228 -0.180042129599 0
0.55784856921 -0.182174305839 0
0.55831427792 -0.190399244089 0
0.561301488504 -0.188670795484 0
0.562263915471 -0.185209667193 0
0.557417704991 -0.192151126692 0
0.55906361166 -0.188704379258 0
0.558105957759 -0.185249393382 0
0.559991871228 -0.183464443079 0
0.560685339505 -0.194696994919 0
0.560297800516 -0.183309513656 0
0.56197307864 -0.193744515599 0
0.562709340626 -0.191841402533 0
0.561121758507 -0.197960884666 0
0.556821641399 -0.194947413183 0
0.563389061194 -0.194899986797 0
0.560609266198 -0.178246131735 0
0.558800270727 -0.1906842408 0
0.561584451043 -0.17915572329 0
0.561477680307 -0.190681935897 0
0.562186112154 -0.18977876498 0
0.563201441747 -0.195701050905 0
0.557026990168 -0.195792306849 0
0.558083621004 -0.18976726072 0
0.558105778128 -0.193858343227 0
0.55966875712 -0.180451858045 0
0.557046178871 -0.193288453013 0
0.558561265391 -0.1880048685 0
0.559180766463 -0.187168134908 0
0.560982139062 -0.190450150118 0
0.556437276295 -0.196186243626 0
0.563713965744 -0.196115571642 0
0.560129918024 -0.187829411658 0
0.559020019198 -0.198149447388 0
0.563166084636 -0.193349682762 0
0.559959608976 -0.180135066859 0
0.561707220251 -0.188003117242 0
0.561086648322 -0.186231395349 0
0.560541729322 -0.192120912477 0
0.556674866646 -0.194934834928 0
0.563511185349 -0.194889156837 0
0.561824274516 -0.191843776315 0
0.562680677168 -0.194227097181 0
0.559402137926 -0.185465783905 0
0.558234603635 -0.192074825629 0
0.5619213404 -0.192042018883 0
0.559283286001 -0.193322790205 0
0.561025494657 -0.193286592724 0
0.560173475682 -0.182011381745 0
0.560600481615 -0.197974748857 0
0.558684886524 -0.198719740902 0
0.559893570744 -0.185110520126 0
0.559430675347 -0.178242691286 0
0.561322046204 -0.198754470853 0
0.560419083919 -0.185028377427 0
0.561126372422 -0.181536780546 0
0.559342431259 -0.197877687644 0
0.560741991035 -0.183966564963 0
0.560135709834 -0.18772800233 0
0.55928112929 -0.194484373671 0
0.560207620463 -0.18771820898 0
0.56267396225 -0.183516145337 0
0.55769707476 -0.183545024213 0
0.558341783387 -0.194711572885 0
0.561938198343 -0.19464578231 0
0.559175941316 -0.181418133031 0
0.560647186498 -0.181008672934 0
0.560211480771 -0.183889175143 0
0.560119608821 -0.183840316836 0
0.557305091457 -0.193338393902 0
0.558727020299 -0.191164951767 0
0.560818223986 -0.186510180533 0
0.558270918091 -0.196627343135 0
0.56289468767 -0.193311439175 0
0.563020306953 -0.192937329696 0
0.56062330007 -0.188727683898 0
0.559467206479 -0.186690178067 0
0.556442849456 -0.195996047678 0
0.563734421738 -0.195914123187 0
0.561478739886 -0.182676066219 0
0.559571737706 -0.183955561587 0
0.559564598892 -0.189053370655 0
0.561456294503 -0.198733464732 0
0.560261340419 -0.180810442658 0
0.56314386581 -0.197030782013 0
0.556972214434 -0.197120204418 0
0.561129194692 -0.18529598338 0
0.559183448419 -0.185356036201 0
0.558499264933 -0.198677260246 0
0.557425990827 -0.193965359188 0
0.557792606109 -0.191032880226 0
0.557200010312 -0.195486593547 0
0.557768082372 -0.197457803593 0
0.55785309675 -0.190990544945 0
0.562499617326 -0.191140089825 0
0.562372960995 -0.196553228924 0
0.562287092799 -0.197475687137 0
0.56297224032 -0.195204537444 0
0.558806399611 -0.182426857127 0
0.557724975736 -0.196506543451 0
0.55999092209 -0.183272297908 0
0.559871587284 -0.198229702672 0
0.559922726169 -0.191769879975 0
0.561152082427 -0.18732353089 0
0.560982720972 -0.19023732931 0
0.560287941895 -0.183125556882 0
0.559376828235 -0.190261911756 0
0.563589499202 -0.195820549448 0
0.561195546451 -0.178454607835 0
0.557964167735 -0.194118474866 0
0.562303929489 -0.194067572857 0
0.559903457965 -0.192517986822 0
0.560423151778 -0.192499927247 0
0.558235737673 -0.192139269323 0
0.557162267842 -0.193017620297 0
0.560544115356 -0.179150020563 0
0.559256895348 -0.193037728591 0
0.558508843794 -0.193025045448 0
0.561778909854 -0.192992685271 0
0.556572582194 -0.195825944997 0
0.563363414244 -0.194460813711 0
0.560775451049 -0.185037825108 0
0.557969563627 -0.195264921666 0
0.56229782743 -0.195185879765 0
0.561655117507 -0.197060021376 0
0.556826889733 -0.194478585674 0
0.55730949266 -0.195835846494 0
0.562932317658 -0.195741019516 0
0.562512472059 -0.180800804977 0
0.560172590644 -0.182338269845 0
0.56295721894 -0.19692430858 0
0.557131107488 -0.196956518937 0
0.558590737807 -0.189006216275 0
0.56096871886 -0.179968420228 0
0.560159140972 -0.184330475272 0
0.559962251238 -0.179251365068 0
0.56255644594 -0.190865755881 0
0.561721974272 -0.189074320643 0
0.558960664756 -0.18690400596 0
0.558467132427 -0.179144656048 0
0.557888313108 -0.180833039811 0
0.562851024322 -0.193312905867 0
0.557292081717 -0.194812436849 0
0.56294869268 -0.194748920751 0
0.561333245998 -0.194271823044 0
0.557672525771 -0.190891809581 0
0.559116181382 -0.186640009928 0
0.559808144979 -0.185020832764 0
0.558665623315 -0.194241751067 0
0.559909024188 -0.195881969012 0
0.562167591855 -0.186966602993 0
0.558206613465 -0.187004831706 0
0.559029586232 -0.189531803172 0
0.561197274343 -0.189506089179 0
0.556526531373 -0.196508228803 0
0.563605699691 -0.19643909984 0
0.559512715291 -0.185199249557 0
0.561225088511 -0.186808218735 0
0.560377603719 -0.185265949684 0
0.561763865275 -0.195448362162 0
0.559049470253 -0.178493384761 0
0.561473353472 -0.190515112938 0
0.56342721023 -0.195836123977 0
0.556787388834 -0.195930637219 0
0.559585170796 -0.19055716609 0
0.559361346478 -0.179725526166 0
0.560738904842 -0.190567442026 0
0.559715423197 -0.184349700299 0
0.560746218464 -0.196375259924 0
0.560869163972 -0.19885720332 0
0.562394610163 -0.190966017146 0
0.558196457444 -0.189523541161 0
0.563415559418 -0.195277795755 0
0.556796787426 -0.195347748512 0
0.563263470505 -0.196135928419 0
0.556850314552 -0.196133900901 0
0.559592573763 -0.181084891896 0
0.562210033065 -0.191371147079 0
0.562102066781 -0.179193831893 0
0.560295157762 -0.177804906494 0
0.560016715724 -0.181098179863 0
0.557151260243 -0.193243576496 0
0.558073111253 -0.191530282798 0
0.559113522659 -0.193996360981 0
0.561189643589 -0.193945479921 0
0.560418475179 -0.187214968607 0
0.56052011588 -0.184088464737 0
0.559763653273 -0.178005186603 0
0.562437701005 -0.197812478538 0
0.557519380278 -0.193902813456 0
0.562714253996 -0.193860234337 0
0.56189705732 -0.189068434813 0
0.557443733306 -0.197666234799 0
0.559206422292 -0.198932227632 0
0.562961189951 -0.192508066876 0
0.558167956167 -0.195595315789 0
0.560455450047 -0.182843625062 0
0.561694350126 -0.189092807489 0
0.561884139414 -0.188690800946 0
0.560591097832 -0.184943406772 0
0.561403645816 -0.187059071218 0
0.558640549937 -0.189148499534 0
0.556944151636 -0.195203714453 0
0.561597254561 -0.180801256414 0
0.561340940364 -0.182140245091 0
0.557044409582 -0.194794616312 0
0.5631818754 -0.194750522151 0
0.558785367311 -0.19448677383 0
0.561507920525 -0.194425383959 0
0.560019569834 -0.182238383804 0
0.562440567957 -0.19264141048 0
0.562379567604 -0.193691257928 0
0.559896701024 -0.182876121579 0
0.558364256781 -0.18874025776 0
0.559661917316 -0.185822299029 0
0.55759063798 -0.192907351455 0
0.557256991644 -0.195544663677 0
0.562982225527 -0.195460741351 0
0.560264859337 -0.198421502122 0
0.5607695204 -0.186355371185 0
0.560733998407 -0.18796543635 0
0.557257345864 -0.19249713461 0
0.560661260705 -0.185781177443 0
0.558718890845 -0.180778617945 0
0.557423649135 -0.192934098139 0
0.560783132259 -0.187227382333 0
0.560896328848 -0.199062162117 0
0.563060594049 -0.182650987579 0
0.559629896019 -0.188004773008 0
0.559207326163 -0.196191609611 0
0.560334428938 -0.181086215222 0
0.559672192361 -0.186508354981 0
0.560021121975 -0.184093718859 0
0.56301615466 -0.184234188673 0
0.557274455801 -0.182669629456 0
0.559590661542 -0.187195409514 0
0.557358392793 -0.184281516825 0
0.560157234528 -0.180439069661 0
0.560286602899 -0.184032636754 0
0.560351384595 -0.178711343798 0
0.563663081725 -0.195895386834 0
0.556529579447 -0.195985236012 0
0.562957753822 -0.181194657711 0
0.562616383394 -0.180070502325 0
0.55973178933 -0.198789471916 0
0.557769042508 -0.180064515359 0
0.557406132043 -0.181217628922 0
0.56283392711 -0.186087072424 0
0.56233600084 -0.187925115694 0
0.560238493272 -0.18243092823 0
0.557542125358 -0.186126385413 0
0.558042887448 -0.187965953485 0
0.563265398359 -0.194830328829 0
0.561482528569 -0.196604669587 0
0.559949946432 -0.186921936696 0
0.561018025306 -0.177941328411 0
0.558841434764 -0.179721193188 0
0.561629496761 -0.178401146085 0
0.560848105203 -0.181274136557 0
0.56308768371 -0.193833942148 0
0.563413427515 -0.195569052703 0
0.556801189188 -0.195651060347 0
0.557754839444 -0.193623815438 0
0.563554209796 -0.195271479576 0
0.556642187221 -0.195333863375 0
0.560412593524 -0.193607728545 0
0.559484791883 -0.185622852708 0
0.560536101529 -0.198766861538 0
0.559734443937 -0.17873948866 0
0.560912460172 -0.188413703116 0
0.560688075147 -0.191756272855 0
0.559660976296 -0.191759602415 0
0.556972356823 -0.194415163537 0
0.560935746732 -0.186160389623 0
0.558532527273 -0.183000759971 0
0.560387103746 -0.183815644784 0
0.562596329347 -0.195630562072 0
0.560120146276 -0.182531805343 0
0.559328919146 -0.186064700191 0
0.561587009237 -0.179823027405 0
0.560162924909 -0.182173942863 0
0.556863846418 -0.194073846081 0
0.559182390855 -0.189779029121 0
0.559768566274 -0.180034420425 0
0.559779592711 -0.190238729357 0
0.559255202384 -0.187910056011 0
0.562075346149 -0.184306841303 0
0.560285585022 -0.190132614382 0
0.5600578011 -0.19015240863 0
0.558297941186 -0.184340564099 0
0.560416066474 -0.186106977746 0
0.560672560349 -0.179629942257 0
0.562156533149 -0.183112321055 0
0.563584890867 -0.195374427886 0
0.556588506017 -0.195395621392 0
0.55920812219 -0.199143800853 0
0.559896590699 -0.183826549778 0
0.563327734583 -0.194021861574 0
0.560429593196 -0.179790381347 0
0.558598879354 -0.178634630386 0
0.557361988622 -0.195187507588 0
0.562881395804 -0.19511388074 0
0.557749400977 -0.195698429168 0
0.562510011655 -0.195606926041 0
0.559345305764 -0.179148869573 0
0.557393181429 -0.192312373384 0
0.561895903549 -0.182009493385 0
0.563186054309 -0.195777007101 0
0.560831545766 -0.185943526588 0
0.55891866243 -0.181729754807 0
0.563247170606 -0.194370913481 0
0.557162218368 -0.195994293402 0
0.563072907131 -0.195893687937 0
0.560813838171 -0.19319789634 0
0.56212564871 -0.191576253382 0
0.561512348835 -0.185829397775 0
0.557600153056 -0.194394437167 0
0.562653943321 -0.194338501793 0
0.558685398725 -0.191608267386 0
0.560106373484 -0.182899475659 0
0.561568302737 -0.191626309012 0
0.560815451716 -0.185228043111 0
0.560858967125 -0.178561743874 0
0.557667358168 -0.191095407056 0
0.558859892044 -0.185892774814 0
0.559490187063 -0.191389274836 0
0.560829116375 -0.191389445129 0
0.561689529092 -0.193109125739 0
0.558740585898 -0.189371491992 0
0.559136034579 -0.199252604482 0
0.558367278387 -0.195100277356 0
0.56191322046 -0.195024690831 0
0.561150447918 -0.17940386796 0
0.56163446513 -0.189524113572 0
0.558737742959 -0.18955745148 0
0.559831861981 -0.184518660344 0
0.560200947819 -0.182958817735 0
0.559380768154 -0.198592411897 0
0.559583764262 -0.188707195743 0
0.559023683582 -0.19173879486 0
0.562788809856 -0.192079718238 0
0.560589010259 -0.190850854932 0
0.560747941952 -0.18878489379 0
0.560462381225 -0.184399867544 0
0.563656075165 -0.195655744626 0
0.556531777935 -0.195729207356 0
0.559039587644 -0.187876657216 0
0.558223415731 -0.193607903329 0
0.562051353782 -0.193556288229 0
0.562141936157 -0.190050894606 0
0.558806794534 -0.193422277199 0
0.561470986369 -0.193368905521 0
0.55639399886 -0.196151055262 0
0.563770626984 -0.196068461701 0
0.558895448916 -0.186991937947 0
0.560991286449 -0.197218793236 0
0.563082142919 -0.193310103829 0
0.560948226885 -0.19185759515 0
0.561579905344 -0.189465065415 0
0.560193558092 -0.182564896541 0
0.559874205436 -0.18567402493 0
0.558041613388 -0.17938600663 0
0.562129040806 -0.192709402073 0
0.563409756003 -0.19450481862 0
0.556790003272 -0.194550617826 0
0.557877506522 -0.19227112876 0
0.558135096261 -0.190034711887 0
0.560516076774 -0.18433771489 0
0.558736122748 -0.190185677519 0
0.559840517393 -0.181386846241 0
0.561699200017 -0.189942388997 0
0.561114596537 -0.189511769107 0
0.55970206608 -0.194737197759 0
0.561298389844 -0.188028448026 0
0.562115935631 -0.18057170123 0
0.561979188786 -0.188977749543 0
0.563019926057 -0.192711093202 0
0.560358421849 -0.195708909787 0
0.558428596203 -0.188554991229 0
0.559775989941 -0.187990188485 0
0.558967927552 -0.197364968261 0
0.558379448504 -0.193140097672 0
0.558738732887 -0.18766428626 0
0.559852799327 -0.18396719597 0
0.558842342213 -0.188129434548 0
0.557988271208 -0.191505363975 0
0.558240874708 -0.180562841245 0
0.558063869747 -0.181547221812 0
0.556961370135 -0.196039485936 0
0.563263907035 -0.195937726475 0
0.563721880051 -0.195877936799 0
0.556445110133 -0.195949213252 0
0.560597889529 -0.177709246144 0
0.560471225467 -0.181049988756 0
0.561549660056 -0.187665607192 0
0.56005201651 -0.182814902284 0
0.562121388852 -0.194621776581 0
0.558600483418 -0.197723307625 0
0.563191179912 -0.193478133908 0
0.560405091482 -0.183729517445 0
0.560277264661 -0.185848603743 0
0.561316688383 -0.187262668803 0
0.558648017276 -0.190187407168 0