# vtk DataFile Version 2.0
Generated with Solid Solver
ASCII
DATASET UNSTRUCTURED_GRID
POINTS 999 float 
0.2 4.325 0.0
1.4 4.325 0.0
1.4 4.825 0.0
0.2 4.825 0.0
1.4 4.34523264049 0.0
1.4 4.36751203886 0.0
1.4 4.39204525371 0.0
1.4 4.4190602782 0.0
1.4 4.44880817466 0.0
1.4 4.48156541084 0.0
1.4 4.51763640748 0.0
1.4 4.5573564007 0.0
1.4 4.60109451608 0.0
1.4 4.64925723872 0.0
1.4 4.70229217343 0.0
1.4 4.76069218095 0.0
1.33333333333 4.825 0.0
1.26666666667 4.825 0.0
1.2 4.825 0.0
1.13333333333 4.825 0.0
1.06666666667 4.825 0.0
1.0 4.825 0.0
0.933333333334 4.825 0.0
0.866666666668 4.825 0.0
0.800000000001 4.825 0.0
0.733333333334 4.825 0.0
0.666666666668 4.825 0.0
0.600000000001 4.825 0.0
0.533333333334 4.825 0.0
0.466666666667 4.825 0.0
0.4 4.825 0.0
0.333333333334 4.825 0.0
0.266666666667 4.825 0.0
0.2 4.76069218095 0.0
0.2 4.70229217343 0.0
0.2 4.64925723872 0.0
0.2 4.60109451608 0.0
0.2 4.5573564007 0.0
0.2 4.51763640748 0.0
0.2 4.48156541084 0.0
0.2 4.44880817466 0.0
0.2 4.4190602782 0.0
0.2 4.39204525371 0.0
0.2 4.36751203886 0.0
0.2 4.34523264049 0.0
0.212131543907 4.30926329506 0.0
0.224675715302 4.29385348652 0.0
0.23762369102 4.27878141198 0.0
0.250966423879 4.26405760374 0.0
0.264694484585 4.24969246611 0.0
0.278798324214 4.23569599189 0.0
0.293267939266 4.22207810803 0.0
0.308093289028 4.20884826442 0.0
0.323263842145 4.19601585877 0.0
0.338769084145 4.18358978512 0.0
0.354597997314 4.17157887342 0.0
0.37073960121 4.15999145532 0.0
0.387182441982 4.14883575334 0.0
0.403915091795 4.13811952025 0.0
0.420925712897 4.12785033813 0.0
0.438202430937 4.11803537461 0.0
0.455733079095 4.10868154223 0.0
0.473505374364 4.09979539439 0.0
0.491506842655 4.09138316882 0.0
0.509724826085 4.0834507802 0.0
0.528146580414 4.07600377808 0.0
0.546759103951 4.06904741762 0.0
0.56554943677 4.06258654322 0.0
0.584504260001 4.05662573401 0.0
0.60361041518 4.0511691282 0.0
0.622854334779 4.04622060039 0.0
0.642222678753 4.04178358113 0.0
0.661701681839 4.03786122392 0.0
0.681277836375 4.03445624851 0.0
0.700937245817 4.03157107217 0.0
0.720666255912 4.02920769845 0.0
0.740450894784 4.02736780161 0.0
0.76027736978 4.02605266363 0.0
0.780131702711 4.02526321235 0.0
0.799999999998 4.025 0.0
0.819868297285 4.02526321235 0.0
0.839722630216 4.02605266363 0.0
0.859549105212 4.02736780161 0.0
0.879333744085 4.02920769845 0.0
0.89906275418 4.03157107217 0.0
0.918722163621 4.03445624851 0.0
0.938298318157 4.03786122392 0.0
0.957777321244 4.04178358113 0.0
0.977145665218 4.04622060039 0.0
0.996389584817 4.0511691282 0.0
1.01549574 4.05662573401 0.0
1.03445056323 4.06258654322 0.0
1.05324089605 4.06904741762 0.0
1.07185341958 4.07600377808 0.0
1.09027517391 4.0834507802 0.0
1.10849315734 4.09138316882 0.0
1.12649462563 4.09979539439 0.0
1.1442669209 4.10868154222 0.0
1.16179756906 4.1180353746 0.0
1.1790742871 4.12785033813 0.0
1.1960849082 4.13811952024 0.0
1.21281755802 4.14883575334 0.0
1.22926039879 4.15999145532 0.0
1.24540200269 4.17157887342 0.0
1.26123091585 4.18358978512 0.0
1.27673615785 4.19601585877 0.0
1.29190671097 4.20884826442 0.0
1.30673206073 4.22207810803 0.0
1.32120167579 4.23569599189 0.0
1.33530551541 4.24969246611 0.0
1.34903357612 4.26405760374 0.0
1.36237630898 4.27878141198 0.0
1.3753242847 4.29385348652 0.0
1.38786845609 4.30926329506 0.0
1.05632730172 4.46025283906 0.0
0.549964048968 4.4630053958 0.0
0.806135520676 4.31186690218 0.0
0.603895783049 4.26079310371 0.0
1.22984770884 4.38318704125 0.0
0.3703382852 4.38423552752 0.0
0.995322815839 4.25565031136 0.0
0.728315816804 4.1765935937 0.0
0.872128173905 4.17288724072 0.0
1.14059401893 4.27298468684 0.0
0.461553191009 4.27181671009 0.0
0.784706775856 4.56821390922 0.0
0.398287125272 4.57945970538 0.0
1.20625306554 4.58334743514 0.0
0.624100842742 4.1589824436 0.0
0.5257453845 4.18811776279 0.0
0.978502430793 4.15488737058 0.0
1.07419209812 4.18825154482 0.0
0.364313698077 4.28677035763 0.0
1.23509538257 4.28681716733 0.0
0.68124123937 4.39284548972 0.0
1.31679378691 4.35012066749 0.0
0.283206213094 4.35012066749 0.0
0.791498533126 4.11467141721 0.0
0.931481076052 4.3801344917 0.0
0.966719065571 4.62778042839 0.0
0.684451667517 4.11068036752 0.0
0.618335406951 4.62686910993 0.0
0.450982331762 4.19686171732 0.0
0.915674266355 4.10995633851 0.0
1.14900051594 4.19689012964 0.0
1.30193709687 4.4481448133 0.0
0.298574667609 4.44816296922 0.0
1.05734787542 4.34990107617 0.0
0.539273225177 4.35252599628 0.0
0.709896798149 4.27721026287 0.0
0.895708916005 4.26924194389 0.0
0.813273511364 4.43835766235 0.0
0.559289631452 4.13230879113 0.0
1.04001407307 4.13281539633 0.0
0.801161810585 4.23146244955 0.0
0.665113819616 4.52056650186 0.0
0.852577362173 4.09111846388 0.0
0.390256727869 4.2242806298 0.0
1.20974450479 4.22428104599 0.0
0.921542541183 4.52778058719 0.0
1.14030889032 4.36437344809 0.0
1.15600477272 4.46808538305 0.0
0.435243219029 4.4750581257 0.0
0.462045157798 4.36654654286 0.0
0.735806812738 4.08472269746 0.0
1.30082934537 4.29793772796 0.0
0.299170654625 4.29793772796 0.0
0.533651712118 4.26265983853 0.0
0.666130919144 4.21652131559 0.0
1.0676097303 4.26179469382 0.0
1.08054433577 4.58530946155 0.0
0.506773767255 4.56568295079 0.0
0.626745312844 4.10124420826 0.0
0.933845304214 4.2106954732 0.0
0.293717639664 4.55175000185 0.0
0.312505022079 4.66426411351 0.0
1.3058164124 4.55154930624 0.0
1.29054387065 4.66302765963 0.0
0.973467966326 4.09941619478 0.0
0.487935413164 4.15087084015 0.0
0.461549079751 4.68836834982 0.0
1.11203248746 4.15093503889 0.0
1.14453515393 4.70617370303 0.0
0.840217564202 4.68891146633 0.0
0.585347033288 4.20539048534 0.0
0.619177396637 4.34227576306 0.0
0.331644410315 4.24962190462 0.0
1.26835558968 4.24962190462 0.0
1.01536156978 4.19987473052 0.0
0.809331033562 4.07065709122 0.0
0.982321540791 4.33437358971 0.0
0.725600576914 4.66999651799 0.0
0.812291456186 4.16642942492 0.0
0.335887692543 4.33918235669 0.0
1.26344844681 4.34017131907 0.0
1.23449730504 4.49457441524 0.0
1.34334172095 4.40539551957 0.0
0.256658279045 4.40539551957 0.0
0.741646926828 4.34287908527 0.0
0.674799084703 4.16673768522 0.0
1.18647435526 4.30955189749 0.0
0.360563250283 4.49596479569 0.0
0.873716483853 4.33845499203 0.0
0.418704489949 4.31146264283 0.0
0.492670911224 4.22931614809 0.0
0.403480880356 4.19046776931 0.0
1.19651541215 4.1904686246 0.0
0.728649253738 4.46214546491 0.0
1.00883674467 4.40174664879 0.0
1.11035034557 4.23161841276 0.0
0.261968539765 4.3130079512 0.0
1.33803146023 4.3130079512 0.0
0.74649980488 4.1318354354 0.0
0.927597725248 4.1577597079 0.0
0.892956618256 4.07619338913 0.0
0.659794281787 4.07951387326 0.0
0.587663534405 4.09486537006 0.0
0.942353209926 4.07935300973 0.0
1.01493747319 4.09476013719 0.0
0.613130017774 4.41369803882 0.0
0.449373501074 4.15377191978 0.0
0.514840228377 4.12225850006 0.0
0.497057592 4.41333092106 0.0
1.15061382426 4.15379293084 0.0
1.08514419473 4.12228328152 0.0
0.745617635771 4.23098957592 0.0
0.87523452213 4.59853036549 0.0
0.855262884783 4.2258970831 0.0
1.01126200032 4.53280064162 0.0
1.09391916408 4.40632408872 0.0
1.04436265455 4.71482000827 0.0
0.314320181089 4.38773968607 0.0
1.28649331902 4.38743720145 0.0
0.771211579291 4.06316862024 0.0
0.432259099658 4.24006002157 0.0
0.698583889427 4.07144353526 0.0
1.16802128371 4.238862881 0.0
1.09587629216 4.3086676659 0.0
1.35920470355 4.35666960471 0.0
0.240795296449 4.35666960471 0.0
0.504003580654 4.30815758118 0.0
0.579942709371 4.5342075073 0.0
0.875915224914 4.12815792528 0.0
0.426503136644 4.40717733008 0.0
0.57541416445 4.30365301522 0.0
0.683877978289 4.33161848113 0.0
0.888061695889 4.44633509246 0.0
0.26012287522 4.49859249103 0.0
1.33987712478 4.49859249103 0.0
0.801393572636 4.37060096582 0.0
0.558460082533 4.72496728209 0.0
1.1741923373 4.41132830101 0.0
0.83220012886 4.12779415912 0.0
1.02815069622 4.30053276509 0.0
0.948308583502 4.2880204454 0.0
0.846588933095 4.50834596945 0.0
0.343666800815 4.43485820652 0.0
1.25632767671 4.43480360053 0.0
0.97849585731 4.47031535602 0.0
1.10170977548 4.51507265998 0.0
0.662193131828 4.26809398492 0.0
0.400503668388 4.26881657105 0.0
1.20117145985 4.26130427377 0.0
0.350957892513 4.21796558019 0.0
1.24904210749 4.21796558019 0.0
0.771964652188 4.18905379403 0.0
0.932165148285 4.72736281402 0.0
0.373672364094 4.73321357765 0.0
0.760245937722 4.28409350779 0.0
0.848718469252 4.05767763075 0.0
1.23385612561 4.7358294747 0.0
0.846421485813 4.28065918421 0.0
0.651597058631 4.13043284014 0.0
0.650489852552 4.72138045504 0.0
0.58457834847 4.16375088261 0.0
0.48701309933 4.18859927013 0.0
0.708495738406 4.58856947756 0.0
1.11203398596 4.18878062515 0.0
0.54865558244 4.10250047869 0.0
1.05126102377 4.10234629471 0.0
0.300013757486 4.26259646442 0.0
1.29998624251 4.26259646442 0.0
0.9465032388 4.12718070354 0.0
0.708587583337 4.14146095907 0.0
0.973348904468 4.19537871864 0.0
0.628721855632 4.19538356945 0.0
0.380175010018 4.34021880077 0.0
0.662092932411 4.45899041267 0.0
1.05133526787 4.22221992007 0.0
0.528087045766 4.64327882187 0.0
1.22233124543 4.33521693908 0.0
1.19001193434 4.36273586668 0.0
0.853024099244 4.39544003492 0.0
0.542800296246 4.22324366905 0.0
0.247706318737 4.45239119247 0.0
1.35229368126 4.45239119247 0.0
0.599153768578 4.12953797005 0.0
1.01616570494 4.16227683178 0.0
0.744705786938 4.40569544575 0.0
1.31929001115 4.73702550052 0.0
0.777615355331 4.15113602511 0.0
1.33132411895 4.60631378639 0.0
0.265621610877 4.60975488866 0.0
0.532023338888 4.15374454388 0.0
1.0697792195 4.15241429251 0.0
0.286371037106 4.73010312914 0.0
0.497725885905 4.50153668256 0.0
0.46053455822 4.31587947599 0.0
0.433799237968 4.54629400991 0.0
0.388624781906 4.65094200004 0.0
0.554823673752 4.40451940232 0.0
1.1421595646 4.31818301431 0.0
1.14760043966 4.61655103139 0.0
1.21258698805 4.65320200685 0.0
1.16279096046 4.53292621409 0.0
0.995762647814 4.12508772517 0.0
0.456229040627 4.61456685246 0.0
0.707289391156 4.21520271873 0.0
0.763036833302 4.74285445535 0.0
0.78386198569 4.49787013126 0.0
[...]
POINT_DATA 999
VECTORS Displacement float
0.157239639018 -0.196178477202 0
0.162707699602 -0.196235026663 0
0.16 -0.2 0
0.16 -0.2 0
0.162943907233 -0.196218633374 0
0.163171372114 -0.196197048742 0
0.163375608116 -0.196171968684 0
0.16354970934 -0.196163288336 0
0.163657165958 -0.196180701654 0
0.163726774352 -0.196234724185 0
0.163699039234 -0.19633401769 0
0.16356661019 -0.196488261664 0
0.163313840906 -0.196738973883 0
0.162889147856 -0.197110990229 0
0.162270894933 -0.197670596014 0
0.161375989302 -0.198519435595 0
0.16 -0.2 0
0.16 -0.2 0
0.16 -0.2 0
0.16 -0.2 0
0.16 -0.2 0
0.16 -0.2 0
0.16 -0.2 0
0.16 -0.2 0
0.16 -0.2 0
0.16 -0.2 0
0.16 -0.2 0
0.16 -0.2 0
0.16 -0.2 0
0.16 -0.2 0
0.16 -0.2 0
0.16 -0.2 0
0.16 -0.2 0
0.15862565512 -0.198516185964 0
0.157726134657 -0.197658457709 0
0.157075033215 -0.19708860512 0
0.156660060206 -0.196705070924 0
0.156405825405 -0.19644699491 0
0.156267230438 -0.196287726309 0
0.156234889468 -0.196186014674 0
0.156300988324 -0.196129580808 0
0.156405324724 -0.196110136206 0
0.156576761973 -0.196117219368 0
0.156778714249 -0.196141284474 0
0.15700445428 -0.19616228514 0
0.157434111585 -0.196050833793 0
0.157648204746 -0.195907785373 0
0.157879566323 -0.195740870902 0
0.158132874089 -0.195550581733 0
0.158406973992 -0.195328767569 0
0.158693794431 -0.195070102731 0
0.158997812599 -0.194777419606 0
0.159331570911 -0.194446996486 0
0.159691890229 -0.194049112704 0
0.160059625093 -0.193615489291 0
0.160454514108 -0.193111929384 0
0.160898190954 -0.192526796229 0
0.161366119419 -0.191813580888 0
0.161895793239 -0.19091449491 0
0.162406748315 -0.189814880332 0
0.162826824317 -0.188713685549 0
0.163139740202 -0.187651610968 0
0.163372183923 -0.1865928717 0
0.163529437882 -0.185594434451 0
0.163619951502 -0.184631875664 0
0.163657046935 -0.18371971586 0
0.16362994635 -0.182836459141 0
0.163561679321 -0.181990044787 0
0.163416121132 -0.181253901334 0
0.163240546851 -0.180573847349 0
0.163019819471 -0.179944578142 0
0.162772511235 -0.179381847068 0
0.162489903734 -0.178881070291 0
0.162190449534 -0.178444016826 0
0.161858140881 -0.178065329158 0
0.161510365205 -0.177755581048 0
0.161137948029 -0.17750609637 0
0.160758856393 -0.177319186355 0
0.160365228815 -0.177192499073 0
0.159926217665 -0.177067391271 0
0.159500531752 -0.177151664184 0
0.159099884288 -0.177300031401 0
0.158719794168 -0.177491704869 0
0.158355299599 -0.177746996899 0
0.158007342233 -0.178060137085 0
0.157675277829 -0.178437626684 0
0.157366165591 -0.178885617317 0
0.157094584791 -0.179384738124 0
0.156850900199 -0.179952799997 0
0.15663399505 -0.180587480885 0
0.156462830966 -0.181273107947 0
0.156330081531 -0.182023693823 0
0.156243314701 -0.182813745377 0
0.15620686199 -0.183687998081 0
0.15624851264 -0.184622119302 0
0.156340540432 -0.185591540631 0
0.15650059025 -0.186596474865 0
0.15673104714 -0.187652143066 0
0.157045303946 -0.188721444401 0
0.157446623154 -0.18980369069 0
0.157945567553 -0.190920162749 0
0.158603324339 -0.192012347363 0
0.159091344577 -0.192703355993 0
0.15951504114 -0.1932217945 0
0.159900665195 -0.193703238617 0
0.160263387454 -0.194125844521 0
0.160619644443 -0.194516272286 0
0.160951326821 -0.194842504255 0
0.161254108927 -0.195132050491 0
0.161540251638 -0.195388463352 0
0.161813787553 -0.195608664352 0
0.162066870692 -0.195797931394 0
0.162298289808 -0.195964233052 0
0.162512648744 -0.196107112455 0
0.162384069815 -0.192482839641 0
0.157639413799 -0.19244957685 0
0.160013113367 -0.1859124959 0
0.158978968677 -0.18621031909 0
0.163141530224 -0.193993556732 0
0.15681428614 -0.193954023095 0
0.160893640483 -0.186051104657 0
0.16006075554 -0.181839500846 0
0.159814549849 -0.181731752416 0
0.161821670537 -0.190320899623 0
0.158153334017 -0.190195529476 0
0.159857402569 -0.19377236842 0
0.15714952348 -0.196282383217 0
0.162819498797 -0.196395264722 0
0.16052162648 -0.182859162467 0
0.159979298557 -0.186321664003 0
0.159290210891 -0.182811799233 0
0.159938579598 -0.186327012 0
0.157753149878 -0.193213717762 0
0.162197228971 -0.193262075426 0
0.15883680849 -0.189045632063 0
0.162994735308 -0.195210291747 0
0.156955761191 -0.195155759979 0
0.160011219725 -0.179647952925 0
0.161211334654 -0.188788859852 0
0.161233877888 -0.19576135633 0
0.160958313536 -0.180404972347 0
0.158643671608 -0.195800521728 0
0.159640551814 -0.189292887928 0
0.158916673067 -0.180383750742 0
0.160297575011 -0.189323265698 0
0.163543318599 -0.195562260325 0
0.156419989474 -0.195515027856 0
0.162113853282 -0.189860892732 0
0.15780197662 -0.189970460778 0
0.159431775258 -0.185179138382 0
0.160485055658 -0.184983754196 0
0.160117181077 -0.189949587914 0
0.161414664664 -0.183856294832 0
0.158489688505 -0.183843794327 0
0.159961364195 -0.183291421513 0
0.158693250788 -0.192837683858 0
0.159354474669 -0.179146780634 0
0.158910835413 -0.191997808702 0
0.161044458732 -0.192084571989 0
0.161150185014 -0.192961488375 0
0.162703250699 -0.191928969517 0
0.163017969384 -0.194024991498 0
0.156902477568 -0.194230976522 0
0.15725806915 -0.191878253274 0
0.160705897785 -0.17906807519 0
0.1623620013 -0.194789971909 0
0.157585163324 -0.194729391808 0
0.158599283872 -0.187907908566 0
0.159695542971 -0.183800598686 0
0.161332245641 -0.187934483294 0
0.162176783639 -0.195492406344 0
0.157627200414 -0.195174266167 0
0.161678852488 -0.181224408363 0
0.160157700778 -0.183625330622 0
0.156597104179 -0.19646787282 0
0.157625430937 -0.197787887086 0
0.163379226811 -0.196498696399 0
0.162390373618 -0.197790710806 0
0.158168943145 -0.18119074966 0
0.161111299696 -0.186881256979 0
0.158343144233 -0.1977648083 0
0.158786498277 -0.186884861134 0
0.161493234528 -0.198107093691 0
0.160237511696 -0.196950826992 0
0.159692244694 -0.185058098924 0
0.158452843435 -0.188286971169 0
0.158400246669 -0.19388747459 0
0.161546656152 -0.193960040922 0
0.160121126438 -0.18492828395 0
0.159805678368 -0.178361679843 0
0.161461826786 -0.18809819907 0
0.15951254976 -0.19652623758 0
0.159916510337 -0.181235770169 0
0.157090617022 -0.194207366689 0
0.162869728424 -0.194256557049 0
0.163337894062 -0.195373165414 0
0.163440116842 -0.195722658641 0
0.156515076796 -0.195672892003 0
0.159471730346 -0.187061544325 0
0.160266244317 -0.182167096979 0
0.162428284172 -0.19219025487 0
0.156608453546 -0.195403469586 0
0.160592750177 -0.187012179324 0
0.157520448141 -0.192030561137 0
0.158979455093 -0.188363088935 0
0.159793516094 -0.191239154143 0
0.160170867618 -0.1913268569 0
0.159265390031 -0.190828140921 0
0.161944474207 -0.190357857521 0
0.161011817235 -0.188536014491 0
0.157381306606 -0.195388914988 0
0.162565722506 -0.195445834225 0
0.160280348282 -0.18034351391 0
0.159512859165 -0.181936867495 0
0.158714347393 -0.179136314644 0
0.161737273945 -0.17996704538 0
0.1622537007 -0.182058453114 0
0.158114077356 -0.180008931385 0
0.157595476698 -0.1821465187 0
0.158184755627 -0.190379764554 0
0.161073512268 -0.188655876005 0
0.16203191759 -0.185195593324 0
0.15728819389 -0.192126962749 0
0.158822514479 -0.188663234827 0
0.157852035577 -0.185190390633 0
0.159796861117 -0.183435952765 0
0.160625792075 -0.194690612772 0
0.160101422514 -0.183279029838 0
0.161898142142 -0.193743302294 0
0.162597604802 -0.191847375446 0
0.161098645456 -0.197962994783 0
0.156683573073 -0.194894834533 0
0.163271649264 -0.194953947905 0
0.160355756092 -0.178226250709 0
0.158608607639 -0.190657263102 0
0.161341612828 -0.179124828172 0
0.161321134221 -0.190703964925 0
0.162040764611 -0.189776992733 0
0.163072191414 -0.195773829713 0
0.15687753578 -0.19571962049 0
0.157915038666 -0.189743203417 0
0.158019399838 -0.193842916637 0
0.1594374858 -0.180414210258 0
0.156914969789 -0.193256914425 0
0.15839024004 -0.18798234405 0
0.159021480533 -0.187145375532 0
0.160872033006 -0.190435976677 0
0.156335120045 -0.196128670223 0
0.163628685646 -0.196170386249 0
0.15998804127 -0.187808291239 0
0.158994059378 -0.198143528778 0
0.16305858619 -0.193374531513 0
0.159726915109 -0.180097462887 0
0.161549447316 -0.187985340793 0
0.160917340075 -0.186206529829 0
0.160451754402 -0.192109167476 0
0.156553055175 -0.19489089554 0
0.163409366516 -0.194931609787 0
0.161727357506 -0.191836874777 0
0.162603366082 -0.194235930303 0
0.159219194722 -0.185440453856 0
0.15805527176 -0.192039872479 0
0.1617728376 -0.192087355205 0
0.159087247737 -0.193276085873 0
0.160862293216 -0.193363919794 0
0.159963457422 -0.181980698972 0
0.160578282307 -0.197973810206 0
0.158661854972 -0.198708807207 0
0.159718056798 -0.185084437832 0
0.159175319431 -0.178191857559 0
0.161305207811 -0.198763782552 0
0.160243794361 -0.185001447637 0
0.160900898488 -0.181503618131 0
0.159315333607 -0.197872900769 0
0.160521561556 -0.183939640301 0
0.159921644445 -0.187709591411 0
0.159214309843 -0.194474190805 0
0.160000141542 -0.187684986696 0
0.16243357141 -0.183498497882 0
0.157435150004 -0.183484522647 0
0.158162290739 -0.194651084979 0
0.161784155814 -0.194715308239 0
0.158942822141 -0.181386150029 0
0.160423755266 -0.180978069819 0
0.160001032771 -0.183856820518 0
0.159911101334 -0.183812200343 0
0.157151045819 -0.193298213656 0
0.158614657881 -0.191147919307 0
0.160623697128 -0.186479855565 0
0.15822062148 -0.196615791561 0
0.162764461453 -0.193355154788 0
0.162898636242 -0.192968721977 0
0.16049270816 -0.188708902284 0
0.159265821522 -0.186668307868 0
0.156325042718 -0.195931067717 0
0.163634667465 -0.195977048674 0
0.161250592969 -0.182643610896 0
0.159342257018 -0.183917765054 0
0.159434277582 -0.189034141031 0
0.161438183768 -0.198749014237 0
0.16003759176 -0.18077864636 0
0.16309034862 -0.197069761221 0
0.156907065668 -0.19707762754 0
0.160904029646 -0.185276884804 0
0.158946251306 -0.18530729084 0
0.158474132305 -0.198659126358 0
0.157328050904 -0.19394443051 0
0.157628072002 -0.191005329152 0
0.157117409169 -0.195462807145 0
0.157719907061 -0.197438733785 0
0.157720056542 -0.190969317283 0
0.162363133337 -0.191155259664 0
0.162325889434 -0.196564772338 0
0.162249834305 -0.197491410706 0
0.162901218271 -0.195221995881 0
0.158565206688 -0.182395874744 0
0.157665403951 -0.196489525255 0
0.159790385906 -0.183243691824 0
0.159850947878 -0.198226899527 0
0.159826934572 -0.191756226532 0
0.161000597048 -0.187302104075 0
0.160757994426 -0.190218799458 0
0.160085731653 -0.183094104603 0
0.159170809325 -0.19025032207 0
0.163505589106 -0.195863968187 0
0.160946844938 -0.178429307374 0
0.157791632661 -0.194065927475 0
0.162156251996 -0.194131105292 0
0.159697362217 -0.192479555515 0
0.160261384373 -0.192594519829 0
0.15812895662 -0.192122065179 0
0.157018626411 -0.192983418672 0
0.160300908255 -0.179122154249 0
0.159172719421 -0.193025073944 0
0.158325055469 -0.192982020219 0
0.161625573292 -0.193055787135 0
0.156470653988 -0.195780931404 0
0.163267497973 -0.194491556872 0
0.160587947519 -0.185009253063 0
0.157797210991 -0.195197931962 0
0.162149127533 -0.195257179592 0
0.161619800692 -0.197064283353 0
0.156712064754 -0.194444422761 0
0.15715197131 -0.195760801562 0
0.162795848355 -0.195816368956 0
0.162276418784 -0.180762126989 0
0.159965626077 -0.182306112036 0
0.162904895289 -0.196952001564 0
0.15706559627 -0.196925420689 0
0.158405522335 -0.188983366746 0
0.160735401772 -0.179938317411 0
0.159976125176 -0.18430268428 0
0.15971847977 -0.179210922128 0
0.162427505133 -0.190870498343 0
0.161560315218 -0.189066382589 0
0.158788906484 -0.186880642008 0
0.158213881113 -0.179104849495 0
0.157643330016 -0.180808631865 0
0.162758703868 -0.193323162234 0
0.157135879369 -0.194755213947 0
0.162814535744 -0.194810574775 0
0.161267909784 -0.194267315946 0
0.157520839749 -0.190866977621 0
0.158926448125 -0.186616764589 0
0.159584035719 -0.184980418937 0
0.158591044054 -0.194229426137 0
0.159861597722 -0.195875568802 0
0.161934022106 -0.18695158432 0
0.157950354007 -0.18695392676 0
0.158833345214 -0.189508881443 0
0.161027498634 -0.189504102467 0
0.156438611572 -0.196453816339 0
0.163533141362 -0.196490062404 0
0.159318543396 -0.185173637038 0
0.161046028535 -0.186783145716 0
0.160161554616 -0.185243486216 0
0.161710303278 -0.195449243375 0
0.158794776816 -0.178447410679 0
0.16136209566 -0.190502923857 0
0.16330568078 -0.195909409029 0
0.1566463873 -0.195856474462 0
0.159380258991 -0.190532504296 0
0.159121065521 -0.179685358707 0
0.160574459829 -0.190589301205 0
0.159524007006 -0.18432266004 0
0.160706067534 -0.196372057967 0
0.160856202332 -0.198860170398 0
0.162277704645 -0.190963513926 0
0.158048010302 -0.189502104692 0
0.16329665345 -0.195338312353 0
0.156657753758 -0.195288052904 0
0.163195896958 -0.196166305959 0
0.156766238021 -0.196099782893 0
0.159364694967 -0.181049900237 0
0.162065894668 -0.191397606012 0
0.161856848688 -0.179159984809 0
0.160029962108 -0.177772429268 0
0.15979497734 -0.181063020837 0
0.157031072647 -0.193216975176 0
0.157897571167 -0.191499039565 0
0.158920746639 -0.193942714741 0
0.161026857273 -0.194018762678 0
0.160269754081 -0.187192717168 0
0.160327313569 -0.184058633365 0
0.159505348107 -0.177950008545 0
0.162402881347 -0.197842456149 0
0.157357491875 -0.193854968685 0
0.162576549199 -0.193915671121 0
0.161759741266 -0.189055133342 0
0.157394446041 -0.197630527217 0
0.159190477509 -0.198927498982 0
0.162849702433 -0.192523884559 0
0.158104290574 -0.195582386192 0
0.160240674114 -0.182813426815 0
0.161561681754 -0.189078040145 0
0.16172891127 -0.188678192879 0
0.160391499945 -0.184912258498 0
0.16123936315 -0.187036703121 0
0.158499370815 -0.189128076574 0
0.156849620975 -0.195174556959 0
0.161365571222 -0.18076641399 0
0.161114342757 -0.182106606785 0
0.156896457537 -0.194740254486 0
0.163055389401 -0.19480806559 0
0.158598191949 -0.19442813824 0
0.16134847924 -0.194496354559 0
0.159805211312 -0.182205303103 0
0.162300099374 -0.192686157139 0
0.162300183026 -0.193694189657 0
0.159678620428 -0.182843923663 0
0.158191290748 -0.188717527109 0
0.159492544711 -0.185797493109 0
0.157427332202 -0.192868502615 0
0.157101072326 -0.195475786854 0
0.162847329286 -0.195531197261 0
0.160247581434 -0.198419988977 0
0.16054810557 -0.186337430098 0
0.160512323026 -0.187948974295 0
0.157122834506 -0.19246960824 0
0.160493852319 -0.185755691425 0
0.158479140404 -0.180747396965 0
0.157309914648 -0.192911874545 0
0.160588807904 -0.18719797684 0
0.160885165735 -0.199066745944 0
0.162820658332 -0.182616613166 0
0.159407552261 -0.187966230455 0
0.159160094385 -0.196183974765 0
0.160113700869 -0.181055597591 0
0.159447162905 -0.186464670501 0
0.159834664837 -0.184065886793 0
0.162778004748 -0.184227749937 0
0.157010137553 -0.182621901793 0
0.159385600808 -0.187174844072 0
0.157096470054 -0.18421116285 0
0.159928752949 -0.180404905005 0
0.160099961135 -0.184003912788 0
0.160099813209 -0.178680562874 0
0.163554267459 -0.195964272572 0
0.156402180633 -0.195914666032 0
0.162723282559 -0.181154293087 0
0.16237551314 -0.180032330606 0
0.159716970382 -0.198787123275 0
0.157517653389 -0.180034938957 0
0.157162215094 -0.181202678173 0
0.162599271554 -0.186069772023 0
0.162099903299 -0.187913570986 0
0.160028204269 -0.182401149594 0
0.157279660728 -0.186069406618 0
0.157778175347 -0.187917894206 0
0.16318170128 -0.194855166851 0
0.161443315637 -0.196606081667 0
0.159796480187 -0.186899 0
0.160763561585 -0.17792170756 0
0.158596656139 -0.179683298608 0
0.161378455627 -0.178372809889 0
0.160624411697 -0.181242370382 0
0.16296235775 -0.193880112394 0
0.163292329093 -0.19563601352 0
0.156660349045 -0.19558421446 0
0.157659697129 -0.193605812286 0
0.163444836006 -0.195325885072 0
0.156513117143 -0.195279253039 0
0.160339947137 -0.193598548442 0
0.159287726826 -0.185598301432 0
0.160522842241 -0.198767028458 0
0.159484732162 -0.178692644539 0
0.160777391688 -0.188394630352 0
0.160469534089 -0.191727697399 0
0.159508034527 -0.191866748726 0
0.156828950971 -0.194367511409 0
0.160769838083 -0.186135567458 0
0.158283146296 -0.18296275685 0
0.160172593147 -0.183787576718 0
0.162536733522 -0.195641994043 0
0.159914924046 -0.182502171733 0
0.159155902608 -0.18604027998 0
0.161349653812 -0.179790141824 0
0.159955062743 -0.182142445455 0
0.156736271455 -0.19403717801 0
0.15905766007 -0.189760636564 0
0.159534017611 -0.179995156104 0
0.159664934973 -0.190221939725 0
0.159107388082 -0.187888560668 0
0.161840849408 -0.184289963284 0
0.160069973351 -0.19011196845 0
0.159874231258 -0.19015413815 0
0.15804430502 -0.184284124512 0
0.160254013003 -0.186082359375 0
0.160436127661 -0.17960133331 0
0.161921170459 -0.183083574307 0
0.163492380802 -0.195417021835 0
0.156476153031 -0.195350556007 0
0.159194402765 -0.199138441506 0
0.159675999866 -0.183792232014 0
0.163221629991 -0.194055231927 0
0.160193991559 -0.179760007827 0
0.158341458315 -0.178591561096 0
0.15720349146 -0.195124161736 0
0.162744559075 -0.195180657463 0
0.157581581528 -0.195624921736 0
0.162364901587 -0.195681889902 0
0.159099377429 -0.179105535884 0
0.157239965424 -0.19228029497 0
0.16166504351 -0.181973634477 0
0.163116755429 -0.195802298396 0
0.16063787823 -0.18591341355 0
0.158681908588 -0.181699988012 0
0.163125879835 -0.194420630377 0
0.157008676614 -0.195916055483 0
0.162939886601 -0.195971350512 0
0.1607367444 -0.193189064906 0
0.162022374333 -0.191571301872 0
0.161284428658 -0.185812780568 0
0.157435701852 -0.194340370728 0
0.162512965398 -0.194400011935 0
0.158496775649 -0.191576290654 0
0.159906437963 -0.182869847133 0
0.16141607195 -0.19167000953 0
0.16063489381 -0.185200524904 0
0.160610996824 -0.178537978582 0
0.157527326717 -0.191072288693 0
0.158617054314 -0.185841196353 0
0.159287971145 -0.191359846806 0
0.160671372328 -0.191440566186 0
0.161609050054 -0.193104193435 0
0.158550630372 -0.189348145989 0
0.159122883577 -0.199243603473 0
0.158187482254 -0.195034760748 0
0.161758916009 -0.195096222981 0
0.160911490095 -0.179374600814 0
0.161402484693 -0.189509128299 0
0.158480633567 -0.189514978201 0
0.159648027667 -0.184491770628 0
0.159991899215 -0.182929428846 0
0.159362224657 -0.198588622011 0
0.159377683551 -0.18868708507 0
0.158921840411 -0.191723435787 0
0.162660398473 -0.192103941943 0
0.160483935179 -0.190836600594 0
0.160561801592 -0.188767888568 0
0.160278414544 -0.184371417414 0
0.163550944281 -0.19571505481 0
0.156407848454 -0.19566880773 0
0.15884539074 -0.187854970484 0
0.15804534344 -0.193559971861 0
0.161900336566 -0.193619947923 0
0.161994197976 -0.190054125617 0
0.158618307725 -0.193375040107 0
0.161312218254 -0.193439831299 0
0.156284160277 -0.196085980842 0
0.163678155076 -0.196130801066 0
0.158719027824 -0.186968689982 0
0.160960364962 -0.19721834877 0
0.162981575746 -0.193328137487 0
0.160855160044 -0.19184642678 0
0.161416923914 -0.189463244099 0
0.159987379255 -0.182532694116 0
0.159666273009 -0.185650986094 0
0.157786775088 -0.179350132237 0
0.162040349625 -0.192707141058 0
0.163299395183 -0.194548406348 0
0.156658525561 -0.194506632672 0
0.157706620246 -0.192235670176 0
0.157961299361 -0.190009820681 0
0.160316950491 -0.184307144293 0
0.158611199218 -0.190167127964 0
0.159618341585 -0.181351992711 0
0.161578539698 -0.189929918137 0
0.160992290822 -0.189495833244 0
0.159640466393 -0.194728403215 0
0.161121382605 -0.188009132786 0
0.161880393342 -0.180534816204 0
0.161836222016 -0.188965394824 0
0.162902438898 -0.192735324458 0
0.16031016849 -0.195703346055 0
0.158268489722 -0.188532921319 0
0.159634248705 -0.187969175487 0
0.158932730983 -0.197358112896 0
0.15828800465 -0.193125044089 0
0.158557250778 -0.187641656074 0
0.159661028359 -0.183939563712 0
0.158689971649 -0.188107786619 0
0.157868189784 -0.191486076109 0
0.157996554128 -0.180533728916 0
0.157818285363 -0.181524035894 0
0.156813756748 -0.195960755204 0
0.163136181736 -0.196015458903 0
0.163628793984 -0.195932946233 0
0.156334170203 -0.195892098589 0
0.160337336608 -0.177700270655 0
0.160249353388 -0.181019670602 0
0.161319915431 -0.187650974045 0
0.159838790228 -0.182782735389 0
0.16205562897 -0.194624059286 0
0.158566103789 -0.19771446022 0
0.16307703843 -0.193510692882 0
0.160211538933 -0.183699456025 0
0.160065912529 -0.185811395692 0
0.16116109526 -0.187241216032 0
0.158459502741 -0.190161957149 0
0.15912292407 -0.181114475702 0