# vtk DataFile Version 2.0
Generated with Solid Solver
ASCII
DATASET UNSTRUCTURED_GRID
POINTS 999 float 
0.2 4.325 0.0
1.4 4.325 0.0
1.4 4.825 0.0
0.2 4.825 0.0
1.4 4.34523264049 0.0
1.4 4.36751203886 0.0
1.4 4.39204525371 0.0
1.4 4.4190602782 0.0
1.4 4.44880817466 0.0
1.4 4.48156541084 0.0
1.4 4.51763640748 0.0
1.4 4.5573564007 0.0
1.4 4.60109451608 0.0
1.4 4.64925723872 0.0
1.4 4.70229217343 0.0
1.4 4.76069218095 0.0
1.33333333333 4.825 0.0
1.26666666667 4.825 0.0
1.2 4.825 0.0
1.13333333333 4.825 0.0
1.06666666667 4.825 0.0
1.0 4.825 0.0
0.933333333334 4.825 0.0
0.866666666668 4.825 0.0
0.800000000001 4.825 0.0
0.733333333334 4.825 0.0
0.666666666668 4.825 0.0
0.600000000001 4.825 0.0
0.533333333334 4.825 0.0
0.466666666667 4.825 0.0
0.4 4.825 0.0
0.333333333334 4.825 0.0
0.266666666667 4.825 0.0
0.2 4.76069218095 0.0
0.2 4.70229217343 0.0
0.2 4.64925723872 0.0
0.2 4.60109451608 0.0
0.2 4.5573564007 0.0
0.2 4.51763640748 0.0
0.2 4.48156541084 0.0
0.2 4.44880817466 0.0
0.2 4.4190602782 0.0
0.2 4.39204525371 0.0
0.2 4.36751203886 0.0
0.2 4.34523264049 0.0
0.212131543907 4.30926329506 0.0
0.224675715302 4.29385348652 0.0
0.23762369102 4.27878141198 0.0
0.250966423879 4.26405760374 0.0
0.264694484585 4.24969246611 0.0
0.278798324214 4.23569599189 0.0
0.293267939266 4.22207810803 0.0
0.308093289028 4.20884826442 0.0
0.323263842145 4.19601585877 0.0
0.338769084145 4.18358978512 0.0
0.354597997314 4.17157887342 0.0
0.37073960121 4.15999145532 0.0
0.387182441982 4.14883575334 0.0
0.403915091795 4.13811952025 0.0
0.420925712897 4.12785033813 0.0
0.438202430937 4.11803537461 0.0
0.455733079095 4.10868154223 0.0
0.473505374364 4.09979539439 0.0
0.491506842655 4.09138316882 0.0
0.509724826085 4.0834507802 0.0
0.528146580414 4.07600377808 0.0
0.546759103951 4.06904741762 0.0
0.56554943677 4.06258654322 0.0
0.584504260001 4.05662573401 0.0
0.60361041518 4.0511691282 0.0
0.622854334779 4.04622060039 0.0
0.642222678753 4.04178358113 0.0
0.661701681839 4.03786122392 0.0
0.681277836375 4.03445624851 0.0
0.700937245817 4.03157107217 0.0
0.720666255912 4.02920769845 0.0
0.740450894784 4.02736780161 0.0
0.76027736978 4.02605266363 0.0
0.780131702711 4.02526321235 0.0
0.799999999998 4.025 0.0
0.819868297285 4.02526321235 0.0
0.839722630216 4.02605266363 0.0
0.859549105212 4.02736780161 0.0
0.879333744085 4.02920769845 0.0
0.89906275418 4.03157107217 0.0
0.918722163621 4.03445624851 0.0
0.938298318157 4.03786122392 0.0
0.957777321244 4.04178358113 0.0
0.977145665218 4.04622060039 0.0
0.996389584817 4.0511691282 0.0
1.01549574 4.05662573401 0.0
1.03445056323 4.06258654322 0.0
1.05324089605 4.06904741762 0.0
1.07185341958 4.07600377808 0.0
1.09027517391 4.0834507802 0.0
1.10849315734 4.09138316882 0.0
1.12649462563 4.09979539439 0.0
1.1442669209 4.10868154222 0.0
1.16179756906 4.1180353746 0.0
1.1790742871 4.12785033813 0.0
1.1960849082 4.13811952024 0.0
1.21281755802 4.14883575334 0.0
1.22926039879 4.15999145532 0.0
1.24540200269 4.17157887342 0.0
1.26123091585 4.18358978512 0.0
1.27673615785 4.19601585877 0.0
1.29190671097 4.20884826442 0.0
1.30673206073 4.22207810803 0.0
1.32120167579 4.23569599189 0.0
1.33530551541 4.24969246611 0.0
1.34903357612 4.26405760374 0.0
1.36237630898 4.27878141198 0.0
1.3753242847 4.29385348652 0.0
1.38786845609 4.30926329506 0.0
1.05632730172 4.46025283906 0.0
0.549964048968 4.4630053958 0.0
0.806135520676 4.31186690218 0.0
0.603895783049 4.26079310371 0.0
1.22984770884 4.38318704125 0.0
0.3703382852 4.38423552752 0.0
0.995322815839 4.25565031136 0.0
0.728315816804 4.1765935937 0.0
0.872128173905 4.17288724072 0.0
1.14059401893 4.27298468684 0.0
0.461553191009 4.27181671009 0.0
0.784706775856 4.56821390922 0.0
0.398287125272 4.57945970538 0.0
1.20625306554 4.58334743514 0.0
0.624100842742 4.1589824436 0.0
0.5257453845 4.18811776279 0.0
0.978502430793 4.15488737058 0.0
1.07419209812 4.18825154482 0.0
0.364313698077 4.28677035763 0.0
1.23509538257 4.28681716733 0.0
0.68124123937 4.39284548972 0.0
1.31679378691 4.35012066749 0.0
0.283206213094 4.35012066749 0.0
0.791498533126 4.11467141721 0.0
0.931481076052 4.3801344917 0.0
0.966719065571 4.62778042839 0.0
0.684451667517 4.11068036752 0.0
0.618335406951 4.62686910993 0.0
0.450982331762 4.19686171732 0.0
0.915674266355 4.10995633851 0.0
1.14900051594 4.19689012964 0.0
1.30193709687 4.4481448133 0.0
0.298574667609 4.44816296922 0.0
1.05734787542 4.34990107617 0.0
0.539273225177 4.35252599628 0.0
0.709896798149 4.27721026287 0.0
0.895708916005 4.26924194389 0.0
0.813273511364 4.43835766235 0.0
0.559289631452 4.13230879113 0.0
1.04001407307 4.13281539633 0.0
0.801161810585 4.23146244955 0.0
0.665113819616 4.52056650186 0.0
0.852577362173 4.09111846388 0.0
0.390256727869 4.2242806298 0.0
1.20974450479 4.22428104599 0.0
0.921542541183 4.52778058719 0.0
1.14030889032 4.36437344809 0.0
1.15600477272 4.46808538305 0.0
0.435243219029 4.4750581257 0.0
0.462045157798 4.36654654286 0.0
0.735806812738 4.08472269746 0.0
1.30082934537 4.29793772796 0.0
0.299170654625 4.29793772796 0.0
0.533651712118 4.26265983853 0.0
0.666130919144 4.21652131559 0.0
1.0676097303 4.26179469382 0.0
1.08054433577 4.58530946155 0.0
0.506773767255 4.56568295079 0.0
0.626745312844 4.10124420826 0.0
0.933845304214 4.2106954732 0.0
0.293717639664 4.55175000185 0.0
0.312505022079 4.66426411351 0.0
1.3058164124 4.55154930624 0.0
1.29054387065 4.66302765963 0.0
0.973467966326 4.09941619478 0.0
0.487935413164 4.15087084015 0.0
0.461549079751 4.68836834982 0.0
1.11203248746 4.15093503889 0.0
1.14453515393 4.70617370303 0.0
0.840217564202 4.68891146633 0.0
0.585347033288 4.20539048534 0.0
0.619177396637 4.34227576306 0.0
0.331644410315 4.24962190462 0.0
1.26835558968 4.24962190462 0.0
1.01536156978 4.19987473052 0.0
0.809331033562 4.07065709122 0.0
0.982321540791 4.33437358971 0.0
0.725600576914 4.66999651799 0.0
0.812291456186 4.16642942492 0.0
0.335887692543 4.33918235669 0.0
1.26344844681 4.34017131907 0.0
1.23449730504 4.49457441524 0.0
1.34334172095 4.40539551957 0.0
0.256658279045 4.40539551957 0.0
0.741646926828 4.34287908527 0.0
0.674799084703 4.16673768522 0.0
1.18647435526 4.30955189749 0.0
0.360563250283 4.49596479569 0.0
0.873716483853 4.33845499203 0.0
0.418704489949 4.31146264283 0.0
0.492670911224 4.22931614809 0.0
0.403480880356 4.19046776931 0.0
1.19651541215 4.1904686246 0.0
0.728649253738 4.46214546491 0.0
1.00883674467 4.40174664879 0.0
1.11035034557 4.23161841276 0.0
0.261968539765 4.3130079512 0.0
1.33803146023 4.3130079512 0.0
0.74649980488 4.1318354354 0.0
0.927597725248 4.1577597079 0.0
0.892956618256 4.07619338913 0.0
0.659794281787 4.07951387326 0.0
0.587663534405 4.09486537006 0.0
0.942353209926 4.07935300973 0.0
1.01493747319 4.09476013719 0.0
0.613130017774 4.41369803882 0.0
0.449373501074 4.15377191978 0.0
0.514840228377 4.12225850006 0.0
0.497057592 4.41333092106 0.0
1.15061382426 4.15379293084 0.0
1.08514419473 4.12228328152 0.0
0.745617635771 4.23098957592 0.0
0.87523452213 4.59853036549 0.0
0.855262884783 4.2258970831 0.0
1.01126200032 4.53280064162 0.0
1.09391916408 4.40632408872 0.0
1.04436265455 4.71482000827 0.0
0.314320181089 4.38773968607 0.0
1.28649331902 4.38743720145 0.0
0.771211579291 4.06316862024 0.0
0.432259099658 4.24006002157 0.0
0.698583889427 4.07144353526 0.0
1.16802128371 4.238862881 0.0
1.09587629216 4.3086676659 0.0
1.35920470355 4.35666960471 0.0
0.240795296449 4.35666960471 0.0
0.504003580654 4.30815758118 0.0
0.579942709371 4.5342075073 0.0
0.875915224914 4.12815792528 0.0
0.426503136644 4.40717733008 0.0
0.57541416445 4.30365301522 0.0
0.683877978289 4.33161848113 0.0
0.888061695889 4.44633509246 0.0
0.26012287522 4.49859249103 0.0
1.33987712478 4.49859249103 0.0
0.801393572636 4.37060096582 0.0
0.558460082533 4.72496728209 0.0
1.1741923373 4.41132830101 0.0
0.83220012886 4.12779415912 0.0
1.02815069622 4.30053276509 0.0
0.948308583502 4.2880204454 0.0
0.846588933095 4.50834596945 0.0
0.343666800815 4.43485820652 0.0
1.25632767671 4.43480360053 0.0
0.97849585731 4.47031535602 0.0
1.10170977548 4.51507265998 0.0
0.662193131828 4.26809398492 0.0
0.400503668388 4.26881657105 0.0
1.20117145985 4.26130427377 0.0
0.350957892513 4.21796558019 0.0
1.24904210749 4.21796558019 0.0
0.771964652188 4.18905379403 0.0
0.932165148285 4.72736281402 0.0
0.373672364094 4.73321357765 0.0
0.760245937722 4.28409350779 0.0
0.848718469252 4.05767763075 0.0
1.23385612561 4.7358294747 0.0
0.846421485813 4.28065918421 0.0
0.651597058631 4.13043284014 0.0
0.650489852552 4.72138045504 0.0
0.58457834847 4.16375088261 0.0
0.48701309933 4.18859927013 0.0
0.708495738406 4.58856947756 0.0
1.11203398596 4.18878062515 0.0
0.54865558244 4.10250047869 0.0
1.05126102377 4.10234629471 0.0
0.300013757486 4.26259646442 0.0
1.29998624251 4.26259646442 0.0
0.9465032388 4.12718070354 0.0
0.708587583337 4.14146095907 0.0
0.973348904468 4.19537871864 0.0
0.628721855632 4.19538356945 0.0
0.380175010018 4.34021880077 0.0
0.662092932411 4.45899041267 0.0
1.05133526787 4.22221992007 0.0
0.528087045766 4.64327882187 0.0
1.22233124543 4.33521693908 0.0
1.19001193434 4.36273586668 0.0
0.853024099244 4.39544003492 0.0
0.542800296246 4.22324366905 0.0
0.247706318737 4.45239119247 0.0
1.35229368126 4.45239119247 0.0
0.599153768578 4.12953797005 0.0
1.01616570494 4.16227683178 0.0
0.744705786938 4.40569544575 0.0
1.31929001115 4.73702550052 0.0
0.777615355331 4.15113602511 0.0
1.33132411895 4.60631378639 0.0
0.265621610877 4.60975488866 0.0
0.532023338888 4.15374454388 0.0
1.0697792195 4.15241429251 0.0
0.286371037106 4.73010312914 0.0
0.497725885905 4.50153668256 0.0
0.46053455822 4.31587947599 0.0
0.433799237968 4.54629400991 0.0
0.388624781906 4.65094200004 0.0
0.554823673752 4.40451940232 0.0
1.1421595646 4.31818301431 0.0
1.14760043966 4.61655103139 0.0
1.21258698805 4.65320200685 0.0
1.16279096046 4.53292621409 0.0
0.995762647814 4.12508772517 0.0
0.456229040627 4.61456685246 0.0
0.707289391156 4.21520271873 0.0
0.763036833302 4.74285445535 0.0
0.78386198569 4.49787013126 0.0
[...]
POINT_DATA 999
VECTORS Displacement float
0.39730250552 -0.196234807037 0
0.402789338356 -0.196196086089 0
0.4 -0.2 0
0.4 -0.2 0
0.403021672067 -0.196179904874 0
0.403244846104 -0.196158718126 0
0.403444412281 -0.196134233813 0
0.403613496857 -0.19612637394 0
0.403715588751 -0.196144824473 0
0.403779379606 -0.196200194731 0
0.403745438437 -0.196301207437 0
0.403606319911 -0.196457748988 0
0.403346499634 -0.196711441782 0
0.402914366532 -0.197087399653 0
0.402288435171 -0.197652102308 0
0.401385495118 -0.198508323801 0
0.4 -0.2 0
0.4 -0.2 0
0.4 -0.2 0
0.4 -0.2 0
0.4 -0.2 0
0.4 -0.2 0
0.4 -0.2 0
0.4 -0.2 0
0.4 -0.2 0
0.4 -0.2 0
0.4 -0.2 0
0.4 -0.2 0
0.4 -0.2 0
0.4 -0.2 0
0.4 -0.2 0
0.4 -0.2 0
0.4 -0.2 0
0.398636088463 -0.198529984882 0
0.397744333907 -0.19768175518 0
0.397099999937 -0.197119283603 0
0.39669124832 -0.19674181824 0
0.396442687804 -0.196488646601 0
0.39630930389 -0.196333385257 0
0.396281609571 -0.196234909755 0
0.396351790221 -0.196181060474 0
0.396459748599 -0.196163579114 0
0.39663415563 -0.196172075593 0
0.39683856934 -0.196196980177 0
0.397066158603 -0.196218458072 0
0.397497680572 -0.196106752751 0
0.397712179897 -0.195963691895 0
0.397943762241 -0.195797158932 0
0.398196992287 -0.195607590393 0
0.398470611183 -0.195387028626 0
0.398756714371 -0.195130292548 0
0.399059426117 -0.194840452162 0
0.399390985134 -0.19451393477 0
0.399747051852 -0.194123315205 0
0.400109495894 -0.193700621447 0
0.400494581099 -0.193219557317 0
0.400916830589 -0.192704383304 0
0.401410394783 -0.192003685001 0
0.402067978316 -0.190905680515 0
0.402558072037 -0.189805500046 0
0.402964007917 -0.188716306543 0
0.403277157201 -0.187648370464 0
0.403509296688 -0.186585695849 0
0.403663937766 -0.185591560471 0
0.403758207407 -0.184616752848 0
0.403796037926 -0.183693313766 0
0.403764582818 -0.182804781225 0
0.403678361177 -0.18201674517 0
0.403545062367 -0.181263995823 0
0.403373645357 -0.180577251171 0
0.403154992114 -0.179943813182 0
0.402909035073 -0.179379106371 0
0.402627591386 -0.178877086575 0
0.402329357895 -0.178438844315 0
0.40199863919 -0.178055829694 0
0.401651969337 -0.17774391029 0
0.401280653226 -0.177488536003 0
0.400902157553 -0.177296999829 0
0.400510062218 -0.177163624971 0
0.400076437622 -0.177049940565 0
0.399642524504 -0.17717695881 0
0.399242150999 -0.177308329956 0
0.398860099129 -0.177496649467 0
0.398493824558 -0.177748171881 0
0.398144117081 -0.178059289309 0
0.397810659429 -0.17843635485 0
0.397500243454 -0.178883299178 0
0.39722748458 -0.179381791686 0
0.396981935852 -0.179946940788 0
0.396762581701 -0.180578195369 0
0.396587972484 -0.181260212649 0
0.396447318889 -0.182002777719 0
0.3963658279 -0.182819389394 0
0.39633988278 -0.183714151461 0
0.396377395197 -0.184630473023 0
0.39646918524 -0.185596570595 0
0.396626875448 -0.186596157253 0
0.396854135878 -0.187647166307 0
0.397167211541 -0.188716137397 0
0.39756192225 -0.189792614534 0
0.398057353806 -0.190911674278 0
0.398722461963 -0.192020742471 0
0.399230168025 -0.192735201362 0
0.399641476603 -0.193224131094 0
0.400019981257 -0.193695109475 0
0.400377300396 -0.194111556958 0
0.400728596055 -0.194497239667 0
0.401056093377 -0.194819995898 0
0.401355091701 -0.195106529708 0
0.401637692255 -0.195360281528 0
0.401907829147 -0.19557810607 0
0.402157674842 -0.195765173831 0
0.402385976654 -0.195929384757 0
0.402597299121 -0.196070238442 0
0.402439431615 -0.192480243003 0
0.397681196234 -0.192466014459 0
0.400093431648 -0.185911137963 0
0.399061276078 -0.18621477887 0
0.403211844917 -0.193981557062 0
0.396866441191 -0.193998740395 0
0.400990226989 -0.186048671611 0
0.400168745431 -0.18183529697 0
0.399925275441 -0.181728176568 0
0.401917215689 -0.190318513377 0
0.39821344578 -0.190230985447 0
0.399889509848 -0.193775044806 0
0.397177087139 -0.196304121351 0
0.402852574174 -0.196387036168 0
0.400633003919 -0.182858491356 0
0.400077916212 -0.186323659299 0
0.399404906546 -0.18280733196 0
0.400049253168 -0.186326284219 0
0.397813070605 -0.193276428111 0
0.40228780999 -0.19325273008 0
0.398895412553 -0.189050704222 0
0.403071102501 -0.195186311505 0
0.397015678738 -0.1952090585 0
0.400135641177 -0.179641613139 0
0.401281043339 -0.188787545696 0
0.401259133683 -0.195761098092 0
0.40107970634 -0.180400575477 0
0.398664449417 -0.19580768487 0
0.399714289303 -0.189318813109 0
0.39903817848 -0.180380402303 0
0.400409226034 -0.189320885178 0
0.403600967693 -0.195541674416 0
0.396467937084 -0.195557705171 0
0.402191866453 -0.189858551091 0
0.397859010975 -0.189988916857 0
0.399516040328 -0.185178961787 0
0.400576661152 -0.18498102981 0
0.400172374442 -0.189950604578 0
0.401537132093 -0.183851686399 0
0.398610972285 -0.183843379572 0
0.400058907893 -0.183288210647 0
0.398729699076 -0.192844762747 0
0.399482151687 -0.179145959662 0
0.398965171479 -0.192079046433 0
0.401152514308 -0.192084781841 0
0.401191548324 -0.192961505431 0
0.402778393835 -0.191924249431 0
0.403071938449 -0.194018418328 0
0.396942348869 -0.194258943832 0
0.397309657101 -0.191910876326 0
0.400834338476 -0.17905801003 0
0.402448921931 -0.194768771015 0
0.397648619639 -0.194788251595 0
0.398673220074 -0.18792095853 0
0.39979259899 -0.183799752063 0
0.401428958949 -0.18793261901 0
0.402209338176 -0.1954896841 0
0.397655116612 -0.19518978096 0
0.401801922435 -0.181225003945 0
0.400261659355 -0.183621861728 0
0.396631518092 -0.196500221045 0
0.397644207881 -0.197806246355 0
0.403418446481 -0.196480826029 0
0.40241116103 -0.19778004212 0
0.398290754355 -0.181184597861 0
0.401225766745 -0.186879853254 0
0.398356356703 -0.197774423518 0
0.398902268264 -0.18688455962 0
0.401507090188 -0.198104386369 0
0.400253099978 -0.196952091516 0
0.399789599717 -0.185059268115 0
0.398517685833 -0.188294912195 0
0.398463944651 -0.193957481647 0
0.401644782887 -0.193946724095 0
0.400229089993 -0.184925894892 0
0.399942229217 -0.17835795018 0
0.401541967437 -0.188096287717 0
0.399529308294 -0.196529466665 0
0.400028714825 -0.181231429395 0
0.397149096179 -0.194261178187 0
0.402948347661 -0.194241050224 0
0.403386794577 -0.195360919665 0
0.403505987248 -0.195695084653 0
0.396569768574 -0.195722404228 0
0.399543123144 -0.187062457082 0
0.400375418968 -0.182164606592 0
0.402515007797 -0.192184597717 0
0.396647926225 -0.195436242628 0
0.400669539465 -0.18701065596 0
0.397575993906 -0.192078100575 0
0.399055050562 -0.188380221284 0
0.399839192943 -0.191321737298 0
0.400289964531 -0.191329547903 0
0.399313484789 -0.19083207733 0
0.402011143591 -0.19035605883 0
0.40111543449 -0.188534248366 0
0.397444532649 -0.195444862065 0
0.402649537507 -0.195417839526 0
0.400399001281 -0.180336798897 0
0.399626217577 -0.181932859979 0
0.398842667946 -0.179134919569 0
0.401865022199 -0.17996408418 0
0.402379867903 -0.182063975569 0
0.398239916865 -0.180005059228 0
0.397718395643 -0.18213736956 0
0.398236244771 -0.190390298517 0
0.40118747692 -0.188659835805 0
0.402157107986 -0.18518687941 0
0.397335184421 -0.192151449068 0
0.398937564367 -0.188658467109 0
0.397973230342 -0.18519582122 0
0.399892979767 -0.183433272012 0
0.40065470382 -0.194691583274 0
0.40020119324 -0.183275689352 0
0.401939584469 -0.193741907174 0
0.402663964825 -0.191843856987 0
0.401111548069 -0.197962088022 0
0.396738219745 -0.194943085944 0
0.403340760943 -0.194934791878 0
0.400491640895 -0.17821158851 0
0.398666131105 -0.190706255771 0
0.40147174033 -0.179117756369 0
0.401425284046 -0.190702458876 0
0.402127977197 -0.189774502214 0
0.403147482814 -0.195742692969 0
0.396937889053 -0.195773303972 0
0.397975771172 -0.189767381485 0
0.398052067835 -0.193854912774 0
0.399556830095 -0.180411351662 0
0.396962719371 -0.193292140737 0
0.398459577853 -0.187992791818 0
0.399092502964 -0.187148360931 0
0.400927718535 -0.190435829336 0
0.396377808376 -0.19616953011 0
0.403677530795 -0.196146065459 0
0.400056050278 -0.187808336357 0
0.399003128921 -0.198148509083 0
0.403123691365 -0.193367070072 0
0.399847727438 -0.180093834857 0
0.401637464048 -0.187983280862 0
0.401006298428 -0.18620413751 0
0.400495119113 -0.192110272323 0
0.396600819328 -0.194931671016 0
0.403469442595 -0.194916484053 0
0.40178007894 -0.191835760441 0
0.402648414738 -0.194232030724 0
0.399303335971 -0.185441866027 0
0.398112011915 -0.192100210052 0
0.401870880106 -0.192083699637 0
0.399148173324 -0.193361156897 0
0.400969396206 -0.193358310489 0
0.400069812083 -0.181976431562 0
0.400589471366 -0.197974042462 0
0.398670721607 -0.198717236042 0
0.39980278642 -0.18508312561 0
0.399309830816 -0.178194909117 0
0.401315010034 -0.198759786182 0
0.400331866598 -0.184999040023 0
0.401017988329 -0.181501954418 0
0.399325274114 -0.197876386578 0
0.400632501224 -0.183938688772 0
0.400013514321 -0.187717688972 0
0.399241796651 -0.194478920137 0
0.400110848035 -0.187683438572 0
0.402566667821 -0.183486973875 0
0.397562687576 -0.183488409816 0
0.3982267015 -0.194713341022 0
0.401878787587 -0.194694441874 0
0.399061064667 -0.181381585178 0
0.400539024433 -0.180973182658 0
0.400108705806 -0.18385336396 0
0.400012794958 -0.183811912941 0
0.397206630342 -0.193348359939 0
0.398660780015 -0.191155183252 0
0.400727966883 -0.186478222397 0
0.398238868061 -0.19662582104 0
0.402844807421 -0.193345106102 0
0.402973653183 -0.192960905688 0
0.400557384328 -0.188708545573 0
0.399353158779 -0.186674372901 0
0.396374183571 -0.195977340997 0
0.403691901635 -0.195949265417 0
0.40137018144 -0.182644061561 0
0.39945725664 -0.183915052252 0
0.399493264854 -0.189036532599 0
0.401448393011 -0.198741677265 0
0.400152843665 -0.180773087186 0
0.403120773498 -0.197051791778 0
0.396934682541 -0.197106068446 0
0.401018015521 -0.185272945511 0
0.399063242509 -0.18530860525 0
0.398484877362 -0.198671013121 0
0.397364184172 -0.193964321637 0
0.397684161793 -0.191040938566 0
0.397148460723 -0.195484931038 0
0.397738500188 -0.197454386152 0
0.397770171677 -0.190986094957 0
0.402448394601 -0.191151528963 0
0.402353286778 -0.19656019606 0
0.402271499359 -0.197484934424 0
0.402943039201 -0.195215435923 0
0.398684744209 -0.182390011719 0
0.397687540261 -0.196504808239 0
0.399888962594 -0.183241408123 0
0.399859355693 -0.198228416936 0
0.399870549633 -0.191758660461 0
0.401079703669 -0.187300264504 0
0.400840815611 -0.190244374893 0
0.400189156719 -0.183090639036 0
0.399288452437 -0.190244927039 0
0.403554246448 -0.19584616633 0
0.401080420178 -0.178416984707 0
0.397854719161 -0.194128864555 0
0.4022464546 -0.194115775923 0
0.399748403706 -0.19259162827 0
0.400378697311 -0.192601293667 0
0.398170530536 -0.19213321231 0
0.397070191175 -0.193024417352 0
0.400429318454 -0.179112347458 0
0.399208099323 -0.19302991761 0
0.398385547022 -0.193055276141 0
0.401724213265 -0.193049292822 0
0.396511854281 -0.195817368969 0
0.403324682569 -0.194481184992 0
0.400685449927 -0.185006361525 0
0.397861496481 -0.195255829175 0
0.402238895674 -0.195230825012 0
0.401639828115 -0.197062446268 0
0.396755557597 -0.194478513436 0
0.397214327496 -0.195815783713 0
0.402876063743 -0.195783947142 0
0.402403041376 -0.180763458661 0
0.400071080673 -0.182302430391 0
0.402935114121 -0.196940210656 0
0.39709202189 -0.1969493136 0
0.398472606722 -0.189005502634 0
0.400858064199 -0.179931564643 0
0.400066938416 -0.184300191848 0
0.399846440755 -0.179207511694 0
0.402505192523 -0.190867290556 0
0.40165701607 -0.189064402187 0
0.398863519256 -0.186885590001 0
0.398343950945 -0.179102791217 0
0.397767156518 -0.180801753267 0
0.402813268989 -0.193318862868 0
0.397196524626 -0.194810205601 0
0.402894204077 -0.19479011759 0
0.401302021746 -0.194267186655 0
0.397575061538 -0.190893228944 0
0.399008185251 -0.186623051071 0
0.399697310869 -0.184979318341 0
0.398620108052 -0.19423714052 0
0.399882154402 -0.195877983179 0
0.402060253143 -0.18694879165 0
0.398068902515 -0.186953226272 0
0.398899012318 -0.189540111714 0
0.401133005457 -0.189502397091 0
0.396475700321 -0.196490869682 0
0.40357449182 -0.196466805706 0
0.399408095832 -0.185175471024 0
0.401143265802 -0.186781073584 0
0.400265635606 -0.185243083314 0
0.401739868298 -0.195447995418 0
0.398927145848 -0.17844810289 0
0.401420853627 -0.190502068337 0
0.403375959232 -0.195877089957 0
0.396704249421 -0.195909166292 0
0.39943608411 -0.190585054628 0
0.399245373765 -0.179683418535 0
0.400687465447 -0.19058852714 0
0.399615378598 -0.184321970131 0
0.400725938447 -0.196372642278 0
0.400863722504 -0.198859014799 0
0.40234532882 -0.190961074099 0
0.398106221144 -0.18951499544 0
0.403366038482 -0.195314864198 0
0.39671377939 -0.195337811747 0
0.403235273933 -0.196154065044 0
0.396799591537 -0.196128163435 0
0.399481520777 -0.181046373236 0
0.402158924825 -0.191394120264 0
0.401989521797 -0.179155187427 0
0.400172361252 -0.177760851672 0
0.399909081495 -0.181059304413 0
0.397074855792 -0.193244897879 0
0.397953996193 -0.191548708876 0
0.398983759191 -0.194016297233 0
0.4011310286 -0.194005496788 0
0.400343030498 -0.187191795505 0
0.400426313073 -0.184055440544 0
0.399643678508 -0.177954057087 0
0.402422451001 -0.197828155299 0
0.397417218551 -0.193912326045 0
0.402660573552 -0.193902162604 0
0.401836134127 -0.189053215415 0
0.397415685916 -0.197653507629 0
0.399195934162 -0.198931532557 0
0.402917239505 -0.192518710584 0
0.39812773428 -0.195593314507 0
0.400348406379 -0.182812173991 0
0.40163371176 -0.189076408349 0
0.401818411343 -0.188676113924 0
0.400495147131 -0.184909445269 0
0.401328014705 -0.187034511446 0
0.398558043783 -0.189135533095 0
0.396885608066 -0.195201899764 0
0.401488038531 -0.180764613941 0
0.40123247398 -0.182106705796 0
0.3969543647 -0.194792126962 0
0.403130256399 -0.194788599926 0
0.398662168186 -0.194494090107 0
0.401448509809 -0.194477697004 0
0.399914896124 -0.182201639444 0
0.402389526283 -0.192679258163 0
0.402345525726 -0.193691708242 0
0.399789575543 -0.182839876271 0
0.398257521982 -0.188733804331 0
0.399572286077 -0.185797428578 0
0.397484125998 -0.192922498237 0
0.397162845088 -0.195530307006 0
0.402926597594 -0.195502778799 0
0.400255629298 -0.198420590752 0
0.400655095532 -0.186336639473 0
0.400613795019 -0.187953825649 0
0.397171217641 -0.192500197182 0
0.400578876725 -0.185753467323 0
0.398600989697 -0.180742668187 0
0.397351685906 -0.1929332773 0
0.400694651769 -0.187196601355 0
0.400891747186 -0.199064871895 0
0.402955673833 -0.182617259103 0
0.399521117497 -0.187963716318 0
0.399178521608 -0.196188609927 0
0.400226931299 -0.181050129848 0
0.399560660332 -0.186464672934 0
0.399926394848 -0.184063477031 0
0.402909625134 -0.184210854043 0
0.397137165286 -0.18261480609 0
0.399472460866 -0.18718261721 0
0.397222819999 -0.184223025516 0
0.400047027308 -0.18039984749 0
0.400193774607 -0.184001017198 0
0.400233027741 -0.178671210958 0
0.403616778118 -0.19593363137 0
0.396455202471 -0.195964290188 0
0.402848596665 -0.181159467395 0
0.402506306116 -0.180030927202 0
0.399722495799 -0.198788714794 0
0.397645245615 -0.180030355186 0
0.39728519112 -0.181192823293 0
0.402730311629 -0.186064850759 0
0.402230729262 -0.187913473643 0
0.4001335322 -0.182398176486 0
0.397402125271 -0.186072115367 0
0.397896666836 -0.187914126339 0
0.403231285417 -0.194846294192 0
0.401464883551 -0.196605081108 0
0.399869616597 -0.186898867404 0
0.400901138612 -0.177904958002 0
0.398722478859 -0.179680688193 0
0.401513998695 -0.178362757968 0
0.400739988563 -0.181239016203 0
0.403038419487 -0.193867603815 0
0.403362594201 -0.195608191802 0
0.396717743402 -0.195635511296 0
0.397695108422 -0.193621359514 0
0.403508620893 -0.195304886176 0
0.396565167507 -0.195325279838 0
0.40037422625 -0.193600090891 0
0.399377186471 -0.185601254626 0
0.400529840355 -0.198766947133 0
0.399616306649 -0.178692749139 0
0.400846023796 -0.188393672054 0
0.400501213536 -0.191861100174 0
0.399636822001 -0.191876079783 0
0.396884062186 -0.194416465281 0
0.400855720805 -0.18613328279 0
0.398405198068 -0.182958159051 0
0.400278651927 -0.183787213157 0
0.402571487871 -0.195637461011 0
0.400017696071 -0.182498539423 0
0.399234795358 -0.186042008489 0
0.401476151251 -0.179785389302 0
0.400060596716 -0.182138451716 0
0.396784107435 -0.194075909791 0
0.39911185643 -0.189764905219 0
0.399655700134 -0.179992567379 0
0.399717183571 -0.190224253277 0
0.399173293385 -0.187891535697 0
0.401966874318 -0.184281031445 0
0.400136988427 -0.190149228674 0
0.399990913208 -0.190151382234 0
0.398167772917 -0.18428811184 0
0.400334580735 -0.186080693342 0
0.400560387303 -0.179592771013 0
0.40204865741 -0.183081174034 0
0.403546456695 -0.195400641176 0
0.396520986321 -0.195389363422 0
0.399199275092 -0.199142819723 0
0.399787701871 -0.183788835552 0
0.4032854317 -0.194044857257 0
0.400317136996 -0.179752334247 0
0.398474053004 -0.178590577685 0
0.397265420601 -0.195179498356 0
0.402825512121 -0.195156139076 0
0.397645512421 -0.195681058956 0
0.402451674129 -0.195650734753 0
0.399227267989 -0.179104856673 0
0.397293328118 -0.192321617723 0
0.401787454412 -0.181975644115 0
0.403157397246 -0.195792575756 0
0.400740401675 -0.185911263131 0
0.398800935662 -0.181694422935 0
0.403198360571 -0.194405123283 0
0.397070214317 -0.195970971904 0
0.403017639477 -0.195936807946 0
0.400774777733 -0.193189804736 0
0.402080161271 -0.191569582216 0
0.40140213404 -0.185808111175 0
0.397497679848 -0.19439893653 0
0.402597929646 -0.194382568618 0
0.398552193484 -0.191640006866 0
0.400006477996 -0.182866383143 0
0.401519519938 -0.191668387444 0
0.400728513725 -0.185197760569 0
0.400743626077 -0.178525009154 0
0.397578704467 -0.191093848057 0
0.398734648164 -0.185843301539 0
0.39933887029 -0.191436167562 0
0.400784621281 -0.191441944926 0
0.40165234529 -0.193103441965 0
0.398616394945 -0.189376180812 0
0.399128325965 -0.1992497537 0
0.398251881935 -0.19509454496 0
0.401853745053 -0.1950713236 0
0.401038313024 -0.179366533167 0
0.401529059166 -0.189512156294 0
0.398595619069 -0.18950768646 0
0.399736761453 -0.184490267061 0
0.400095604763 -0.182927627211 0
0.399368697817 -0.198591636146 0
0.399454841701 -0.188706467908 0
0.398964486346 -0.191729126586 0
0.40274049841 -0.192098477069 0
0.400535155889 -0.190837263692 0
0.400670248542 -0.188765902511 0
0.400371787445 -0.184368542253 0
0.403611666085 -0.195690250053 0
0.3964588236 -0.19571504779 0
0.398922423171 -0.18786828617 0
0.398107776241 -0.193628067291 0
0.401994572539 -0.193609124414 0
0.40208502029 -0.190051603349 0
0.398680553865 -0.193452168135 0
0.401413925734 -0.193431870777 0
0.396330310654 -0.196130803179 0
0.40373102459 -0.196102627964 0
0.398794537571 -0.186974869776 0
0.400976632286 -0.197218173225 0
0.403041991434 -0.193322045067 0
0.400901844941 -0.191846733574 0
0.401517167395 -0.189461361761 0
0.400092669962 -0.182529129931 0
0.39976225539 -0.185653056068 0
0.397917049578 -0.179347373453 0
0.402089942841 -0.192705469824 0
0.403365069355 -0.194534066053 0
0.396709298249 -0.194550289757 0
0.397763175994 -0.192290243834 0
0.398021563531 -0.190039189918 0
0.400419729235 -0.184303917036 0
0.398663095606 -0.190174048895 0
0.399732331066 -0.181348488276 0
0.4016437525 -0.189928564528 0
0.401055123079 -0.189495135096 0
0.399666921699 -0.194731646337 0
0.401222205926 -0.188007435369 0
0.402006338959 -0.180533991152 0
0.401917111642 -0.188963314774 0
0.402974441978 -0.192728783031 0
0.40033259072 -0.195704784294 0
0.398332930691 -0.188543632069 0
0.399700216142 -0.187970252931 0
0.398945452279 -0.197363483774 0
0.398323526428 -0.193134774371 0
0.398631129305 -0.18765234089 0
0.399754042034 -0.183937832135 0
0.39875506927 -0.188113468705 0
0.397914142779 -0.191499821161 0
0.398120578784 -0.180528521621 0
0.397940561325 -0.181516097962 0
0.396873814766 -0.196015215989 0
0.40321033217 -0.195980511934 0
0.403682379152 -0.195909344631 0
0.396380077722 -0.195934547704 0
0.400477832146 -0.177680706336 0
0.400363382854 -0.181014340802 0
0.401437549638 -0.187651668418 0
0.399947688977 -0.182778945286 0
0.402092648053 -0.194622094192 0
0.398578322301 -0.197722168045 0
0.40314647648 -0.193501557431 0
0.400310283815 -0.183696228883 0
0.400175409134 -0.185810250065 0
0.40124367978 -0.187239185797 0
0.398519903036 -0.190200666345 0
0.399240904456 -0.181110537616 0