# vtk DataFile Version 2.0
Generated with Solid Solver
ASCII
DATASET UNSTRUCTURED_GRID
POINTS 999 float 
0.2 4.325 0.0
1.4 4.325 0.0
1.4 4.825 0.0
0.2 4.825 0.0
1.4 4.34523264049 0.0
1.4 4.36751203886 0.0
1.4 4.39204525371 0.0
1.4 4.4190602782 0.0
1.4 4.44880817466 0.0
1.4 4.48156541084 0.0
1.4 4.51763640748 0.0
1.4 4.5573564007 0.0
1.4 4.60109451608 0.0
1.4 4.64925723872 0.0
1.4 4.70229217343 0.0
1.4 4.76069218095 0.0
1.33333333333 4.825 0.0
1.26666666667 4.825 0.0
1.2 4.825 0.0
1.13333333333 4.825 0.0
1.06666666667 4.825 0.0
1.0 4.825 0.0
0.933333333334 4.825 0.0
0.866666666668 4.825 0.0
0.800000000001 4.825 0.0
0.733333333334 4.825 0.0
0.666666666668 4.825 0.0
0.600000000001 4.825 0.0
0.533333333334 4.825 0.0
0.466666666667 4.825 0.0
0.4 4.825 0.0
0.333333333334 4.825 0.0
0.266666666667 4.825 0.0
0.2 4.76069218095 0.0
0.2 4.70229217343 0.0
0.2 4.64925723872 0.0
0.2 4.60109451608 0.0
0.2 4.5573564007 0.0
0.2 4.51763640748 0.0
0.2 4.48156541084 0.0
0.2 4.44880817466 0.0
0.2 4.4190602782 0.0
0.2 4.39204525371 0.0
0.2 4.36751203886 0.0
0.2 4.34523264049 0.0
0.212131543907 4.30926329506 0.0
0.224675715302 4.29385348652 0.0
0.23762369102 4.27878141198 0.0
0.250966423879 4.26405760374 0.0
0.264694484585 4.24969246611 0.0
0.278798324214 4.23569599189 0.0
0.293267939266 4.22207810803 0.0
0.308093289028 4.20884826442 0.0
0.323263842145 4.19601585877 0.0
0.338769084145 4.18358978512 0.0
0.354597997314 4.17157887342 0.0
0.37073960121 4.15999145532 0.0
0.387182441982 4.14883575334 0.0
0.403915091795 4.13811952025 0.0
0.420925712897 4.12785033813 0.0
0.438202430937 4.11803537461 0.0
0.455733079095 4.10868154223 0.0
0.473505374364 4.09979539439 0.0
0.491506842655 4.09138316882 0.0
0.509724826085 4.0834507802 0.0
0.528146580414 4.07600377808 0.0
0.546759103951 4.06904741762 0.0
0.56554943677 4.06258654322 0.0
0.584504260001 4.05662573401 0.0
0.60361041518 4.0511691282 0.0
0.622854334779 4.04622060039 0.0
0.642222678753 4.04178358113 0.0
0.661701681839 4.03786122392 0.0
0.681277836375 4.03445624851 0.0
0.700937245817 4.03157107217 0.0
0.720666255912 4.02920769845 0.0
0.740450894784 4.02736780161 0.0
0.76027736978 4.02605266363 0.0
0.780131702711 4.02526321235 0.0
0.799999999998 4.025 0.0
0.819868297285 4.02526321235 0.0
0.839722630216 4.02605266363 0.0
0.859549105212 4.02736780161 0.0
0.879333744085 4.02920769845 0.0
0.89906275418 4.03157107217 0.0
0.918722163621 4.03445624851 0.0
0.938298318157 4.03786122392 0.0
0.957777321244 4.04178358113 0.0
0.977145665218 4.04622060039 0.0
0.996389584817 4.0511691282 0.0
1.01549574 4.05662573401 0.0
1.03445056323 4.06258654322 0.0
1.05324089605 4.06904741762 0.0
1.07185341958 4.07600377808 0.0
1.09027517391 4.0834507802 0.0
1.10849315734 4.09138316882 0.0
1.12649462563 4.09979539439 0.0
1.1442669209 4.10868154222 0.0
1.16179756906 4.1180353746 0.0
1.1790742871 4.12785033813 0.0
1.1960849082 4.13811952024 0.0
1.21281755802 4.14883575334 0.0
1.22926039879 4.15999145532 0.0
1.24540200269 4.17157887342 0.0
1.26123091585 4.18358978512 0.0
1.27673615785 4.19601585877 0.0
1.29190671097 4.20884826442 0.0
1.30673206073 4.22207810803 0.0
1.32120167579 4.23569599189 0.0
1.33530551541 4.24969246611 0.0
1.34903357612 4.26405760374 0.0
1.36237630898 4.27878141198 0.0
1.3753242847 4.29385348652 0.0
1.38786845609 4.30926329506 0.0
1.05632730172 4.46025283906 0.0
0.549964048968 4.4630053958 0.0
0.806135520676 4.31186690218 0.0
0.603895783049 4.26079310371 0.0
1.22984770884 4.38318704125 0.0
0.3703382852 4.38423552752 0.0
0.995322815839 4.25565031136 0.0
0.728315816804 4.1765935937 0.0
0.872128173905 4.17288724072 0.0
1.14059401893 4.27298468684 0.0
0.461553191009 4.27181671009 0.0
0.784706775856 4.56821390922 0.0
0.398287125272 4.57945970538 0.0
1.20625306554 4.58334743514 0.0
0.624100842742 4.1589824436 0.0
0.5257453845 4.18811776279 0.0
0.978502430793 4.15488737058 0.0
1.07419209812 4.18825154482 0.0
0.364313698077 4.28677035763 0.0
1.23509538257 4.28681716733 0.0
0.68124123937 4.39284548972 0.0
1.31679378691 4.35012066749 0.0
0.283206213094 4.35012066749 0.0
0.791498533126 4.11467141721 0.0
0.931481076052 4.3801344917 0.0
0.966719065571 4.62778042839 0.0
0.684451667517 4.11068036752 0.0
0.618335406951 4.62686910993 0.0
0.450982331762 4.19686171732 0.0
0.915674266355 4.10995633851 0.0
1.14900051594 4.19689012964 0.0
1.30193709687 4.4481448133 0.0
0.298574667609 4.44816296922 0.0
1.05734787542 4.34990107617 0.0
0.539273225177 4.35252599628 0.0
0.709896798149 4.27721026287 0.0
0.895708916005 4.26924194389 0.0
0.813273511364 4.43835766235 0.0
0.559289631452 4.13230879113 0.0
1.04001407307 4.13281539633 0.0
0.801161810585 4.23146244955 0.0
0.665113819616 4.52056650186 0.0
0.852577362173 4.09111846388 0.0
0.390256727869 4.2242806298 0.0
1.20974450479 4.22428104599 0.0
0.921542541183 4.52778058719 0.0
1.14030889032 4.36437344809 0.0
1.15600477272 4.46808538305 0.0
0.435243219029 4.4750581257 0.0
0.462045157798 4.36654654286 0.0
0.735806812738 4.08472269746 0.0
1.30082934537 4.29793772796 0.0
0.299170654625 4.29793772796 0.0
0.533651712118 4.26265983853 0.0
0.666130919144 4.21652131559 0.0
1.0676097303 4.26179469382 0.0
1.08054433577 4.58530946155 0.0
0.506773767255 4.56568295079 0.0
0.626745312844 4.10124420826 0.0
0.933845304214 4.2106954732 0.0
0.293717639664 4.55175000185 0.0
0.312505022079 4.66426411351 0.0
1.3058164124 4.55154930624 0.0
1.29054387065 4.66302765963 0.0
0.973467966326 4.09941619478 0.0
0.487935413164 4.15087084015 0.0
0.461549079751 4.68836834982 0.0
1.11203248746 4.15093503889 0.0
1.14453515393 4.70617370303 0.0
0.840217564202 4.68891146633 0.0
0.585347033288 4.20539048534 0.0
0.619177396637 4.34227576306 0.0
0.331644410315 4.24962190462 0.0
1.26835558968 4.24962190462 0.0
1.01536156978 4.19987473052 0.0
0.809331033562 4.07065709122 0.0
0.982321540791 4.33437358971 0.0
0.725600576914 4.66999651799 0.0
0.812291456186 4.16642942492 0.0
0.335887692543 4.33918235669 0.0
1.26344844681 4.34017131907 0.0
1.23449730504 4.49457441524 0.0
1.34334172095 4.40539551957 0.0
0.256658279045 4.40539551957 0.0
0.741646926828 4.34287908527 0.0
0.674799084703 4.16673768522 0.0
1.18647435526 4.30955189749 0.0
0.360563250283 4.49596479569 0.0
0.873716483853 4.33845499203 0.0
0.418704489949 4.31146264283 0.0
0.492670911224 4.22931614809 0.0
0.403480880356 4.19046776931 0.0
1.19651541215 4.1904686246 0.0
0.728649253738 4.46214546491 0.0
1.00883674467 4.40174664879 0.0
1.11035034557 4.23161841276 0.0
0.261968539765 4.3130079512 0.0
1.33803146023 4.3130079512 0.0
0.74649980488 4.1318354354 0.0
0.927597725248 4.1577597079 0.0
0.892956618256 4.07619338913 0.0
0.659794281787 4.07951387326 0.0
0.587663534405 4.09486537006 0.0
0.942353209926 4.07935300973 0.0
1.01493747319 4.09476013719 0.0
0.613130017774 4.41369803882 0.0
0.449373501074 4.15377191978 0.0
0.514840228377 4.12225850006 0.0
0.497057592 4.41333092106 0.0
1.15061382426 4.15379293084 0.0
1.08514419473 4.12228328152 0.0
0.745617635771 4.23098957592 0.0
0.87523452213 4.59853036549 0.0
0.855262884783 4.2258970831 0.0
1.01126200032 4.53280064162 0.0
1.09391916408 4.40632408872 0.0
1.04436265455 4.71482000827 0.0
0.314320181089 4.38773968607 0.0
1.28649331902 4.38743720145 0.0
0.771211579291 4.06316862024 0.0
0.432259099658 4.24006002157 0.0
0.698583889427 4.07144353526 0.0
1.16802128371 4.238862881 0.0
1.09587629216 4.3086676659 0.0
1.35920470355 4.35666960471 0.0
0.240795296449 4.35666960471 0.0
0.504003580654 4.30815758118 0.0
0.579942709371 4.5342075073 0.0
0.875915224914 4.12815792528 0.0
0.426503136644 4.40717733008 0.0
0.57541416445 4.30365301522 0.0
0.683877978289 4.33161848113 0.0
0.888061695889 4.44633509246 0.0
0.26012287522 4.49859249103 0.0
1.33987712478 4.49859249103 0.0
0.801393572636 4.37060096582 0.0
0.558460082533 4.72496728209 0.0
1.1741923373 4.41132830101 0.0
0.83220012886 4.12779415912 0.0
1.02815069622 4.30053276509 0.0
0.948308583502 4.2880204454 0.0
0.846588933095 4.50834596945 0.0
0.343666800815 4.43485820652 0.0
1.25632767671 4.43480360053 0.0
0.97849585731 4.47031535602 0.0
1.10170977548 4.51507265998 0.0
0.662193131828 4.26809398492 0.0
0.400503668388 4.26881657105 0.0
1.20117145985 4.26130427377 0.0
0.350957892513 4.21796558019 0.0
1.24904210749 4.21796558019 0.0
0.771964652188 4.18905379403 0.0
0.932165148285 4.72736281402 0.0
0.373672364094 4.73321357765 0.0
0.760245937722 4.28409350779 0.0
0.848718469252 4.05767763075 0.0
1.23385612561 4.7358294747 0.0
0.846421485813 4.28065918421 0.0
0.651597058631 4.13043284014 0.0
0.650489852552 4.72138045504 0.0
0.58457834847 4.16375088261 0.0
0.48701309933 4.18859927013 0.0
0.708495738406 4.58856947756 0.0
1.11203398596 4.18878062515 0.0
0.54865558244 4.10250047869 0.0
1.05126102377 4.10234629471 0.0
0.300013757486 4.26259646442 0.0
1.29998624251 4.26259646442 0.0
0.9465032388 4.12718070354 0.0
0.708587583337 4.14146095907 0.0
0.973348904468 4.19537871864 0.0
0.628721855632 4.19538356945 0.0
0.380175010018 4.34021880077 0.0
0.662092932411 4.45899041267 0.0
1.05133526787 4.22221992007 0.0
0.528087045766 4.64327882187 0.0
1.22233124543 4.33521693908 0.0
1.19001193434 4.36273586668 0.0
0.853024099244 4.39544003492 0.0
0.542800296246 4.22324366905 0.0
0.247706318737 4.45239119247 0.0
1.35229368126 4.45239119247 0.0
0.599153768578 4.12953797005 0.0
1.01616570494 4.16227683178 0.0
0.744705786938 4.40569544575 0.0
1.31929001115 4.73702550052 0.0
0.777615355331 4.15113602511 0.0
1.33132411895 4.60631378639 0.0
0.265621610877 4.60975488866 0.0
0.532023338888 4.15374454388 0.0
1.0697792195 4.15241429251 0.0
0.286371037106 4.73010312914 0.0
0.497725885905 4.50153668256 0.0
0.46053455822 4.31587947599 0.0
0.433799237968 4.54629400991 0.0
0.388624781906 4.65094200004 0.0
0.554823673752 4.40451940232 0.0
1.1421595646 4.31818301431 0.0
1.14760043966 4.61655103139 0.0
1.21258698805 4.65320200685 0.0
1.16279096046 4.53292621409 0.0
0.995762647814 4.12508772517 0.0
0.456229040627 4.61456685246 0.0
0.707289391156 4.21520271873 0.0
0.763036833302 4.74285445535 0.0
0.78386198569 4.49787013126 0.0
[...]
POINT_DATA 999
VECTORS Displacement float
0.237250658065 -0.196182413464 0
0.242702804262 -0.196207701203 0
0.24 -0.2 0
0.24 -0.2 0
0.242941146497 -0.196191299671 0
0.243170413356 -0.196169880232 0
0.243376152048 -0.196145174226 0
0.243551535344 -0.196137278903 0
0.243659895608 -0.196155878976 0
0.243730316497 -0.196211501239 0
0.243703132435 -0.196312795949 0
0.243571078823 -0.196469407546 0
0.243318511034 -0.196722896602 0
0.242893749194 -0.197098050896 0
0.242275068907 -0.197661219943 0
0.241379054058 -0.198514058538 0
0.24 -0.2 0
0.24 -0.2 0
0.24 -0.2 0
0.24 -0.2 0
0.24 -0.2 0
0.24 -0.2 0
0.24 -0.2 0
0.24 -0.2 0
0.24 -0.2 0
0.24 -0.2 0
0.24 -0.2 0
0.24 -0.2 0
0.24 -0.2 0
0.24 -0.2 0
0.24 -0.2 0
0.24 -0.2 0
0.24 -0.2 0
0.238625095571 -0.198516088209 0
0.237725452822 -0.197658616464 0
0.237074548648 -0.197089142869 0
0.23666018725 -0.196706085875 0
0.236406815213 -0.196448472987 0
0.236269265521 -0.196289671557 0
0.23623809259 -0.196188369489 0
0.236305486763 -0.19613231186 0
0.236411108279 -0.196113208191 0
0.236583896443 -0.196120604502 0
0.23678719489 -0.196144931491 0
0.237014246212 -0.196166115993 0
0.23744610144 -0.196054152575 0
0.237661211869 -0.195910493651 0
0.23789365522 -0.195742924654 0
0.238148129552 -0.195551922308 0
0.238423489776 -0.195329304042 0
0.238711648827 -0.195069702328 0
0.239017113826 -0.194775947233 0
0.239352509481 -0.194444277934 0
0.239714714471 -0.194044745501 0
0.240084467782 -0.193609189717 0
0.240481716766 -0.193103031286 0
0.240928401738 -0.192513996249 0
0.24140059943 -0.191792922287 0
0.24193188437 -0.190887893665 0
0.242441785919 -0.189783933815 0
0.242852326856 -0.188699119497 0
0.243167673309 -0.187633438567 0
0.243398018848 -0.186580732415 0
0.243555570395 -0.18558474862 0
0.243650060267 -0.184613335143 0
0.243686791859 -0.183698760465 0
0.243660281811 -0.182803832557 0
0.243580815069 -0.181989756959 0
0.243439316486 -0.181250572622 0
0.243266006042 -0.180567079894 0
0.243045935894 -0.179937824268 0
0.242799582843 -0.179373060028 0
0.242517307754 -0.178872170254 0
0.242218248398 -0.17843437573 0
0.241886383386 -0.17805268656 0
0.241538449259 -0.177743063605 0
0.241166101388 -0.177492259675 0
0.240786917474 -0.177302158942 0
0.240392803054 -0.177175049376 0
0.239950490407 -0.177039508798 0
0.239523831328 -0.177158608174 0
0.239126408839 -0.177296758149 0
0.238746739146 -0.177486473738 0
0.238382054255 -0.177738445833 0
0.238034106876 -0.178051755906 0
0.237702368219 -0.178429811927 0
0.237392788067 -0.17887416781 0
0.237120388223 -0.179370928552 0
0.236875723691 -0.179937002214 0
0.236657617211 -0.180570106804 0
0.236485437178 -0.181255419044 0
0.236350991186 -0.182005740629 0
0.236259920324 -0.182790782558 0
0.236236409991 -0.183697161242 0
0.236275700432 -0.184616219082 0
0.236368353954 -0.185581354222 0
0.236529246331 -0.18658398682 0
0.236757616071 -0.187631170432 0
0.237071812482 -0.18869644431 0
0.237481325108 -0.189782050997 0
0.237997257884 -0.190897983821 0
0.238531127682 -0.191804198639 0
0.239005649738 -0.192526969899 0
0.239454536883 -0.193117466019 0
0.239853702584 -0.193624894415 0
0.240225241451 -0.194061602962 0
0.240589142862 -0.194462224183 0
0.240926179367 -0.19479487246 0
0.241233214343 -0.195089561595 0
0.241522920436 -0.195350044694 0
0.241799707531 -0.195573474703 0
0.24205555622 -0.195765330732 0
0.242289372354 -0.1959338069 0
0.242505894391 -0.196078420954 0
0.242377812585 -0.192459904456 0
0.237643623547 -0.192442200862 0
0.240019728203 -0.18590156561 0
0.238994875782 -0.186199529357 0
0.243135659158 -0.193953123206 0
0.236821911597 -0.193948964689 0
0.240893231372 -0.186033528787 0
0.240078538986 -0.181829230888 0
0.239829183235 -0.181721395481 0
0.241801249348 -0.190274170644 0
0.238170016193 -0.190183221181 0
0.239855875449 -0.193764279535 0
0.237150003673 -0.196279596988 0
0.242818961213 -0.196377053388 0
0.240543252843 -0.18284927318 0
0.24000238366 -0.186308104716 0
0.239303761344 -0.182798339442 0
0.239939560992 -0.186308266244 0
0.237766992717 -0.193206557768 0
0.242182581288 -0.193202236456 0
0.238842770243 -0.189036248852 0
0.242991386536 -0.195173097672 0
0.236965068974 -0.195154888077 0
0.24003299738 -0.17963697631 0
0.241208930922 -0.188772911076 0
0.241230671783 -0.195751249823 0
0.240980271062 -0.180395014158 0
0.238643010181 -0.195795833523 0
0.239665488061 -0.189276288239 0
0.238935574457 -0.180373291875 0
0.240273622563 -0.189279683943 0
0.243543732596 -0.195532841343 0
0.236424359443 -0.195513762387 0
0.24210448718 -0.189833325645 0
0.237812344804 -0.189960647547 0
0.23944368803 -0.185169079569 0
0.240490442216 -0.184971042871 0
0.240117729963 -0.189938629312 0
0.241440473183 -0.183842602204 0
0.238507395784 -0.183830907283 0
0.239973600523 -0.183281016822 0
0.238694376867 -0.192830328612 0
0.239376708829 -0.179138855745 0
0.238930832306 -0.191985304535 0
0.241011310322 -0.191997415396 0
0.241146676481 -0.192948643053 0
0.242692035065 -0.191890654136 0
0.243013107027 -0.193996725508 0
0.236906147552 -0.194225721877 0
0.237267431431 -0.191869626725 0
0.240729129815 -0.179055715048 0
0.24235329013 -0.194745002631 0
0.237597872056 -0.194727369667 0
0.238616478032 -0.187895869896 0
0.239712512047 -0.183790513786 0
0.241322512911 -0.187907779724 0
0.242173542908 -0.195476690416 0
0.237628035951 -0.195169523596 0
0.241702251356 -0.18121631049 0
0.240166256504 -0.183612596546 0
0.236598089079 -0.196467123079 0
0.237624746167 -0.197787171435 0
0.243381405102 -0.196478264062 0
0.242392398371 -0.197779036785 0
0.238188268751 -0.181176586079 0
0.24113761202 -0.186866705232 0
0.238342350669 -0.19776271679 0
0.238795545526 -0.186867601601 0
0.241492405444 -0.198099185237 0
0.240235304719 -0.196945547928 0
0.23971252962 -0.185046629724 0
0.238462913426 -0.188277107092 0
0.238416935998 -0.193882407163 0
0.24152907839 -0.193898160728 0
0.240126372974 -0.184912575327 0
0.239831575017 -0.178351407164 0
0.241457811456 -0.188079032159 0
0.239511002437 -0.196521596128 0
0.239933590429 -0.181225613552 0
0.237100655424 -0.194203286557 0
0.242863122339 -0.19421118327 0
0.243336769786 -0.195346524006 0
0.243440408264 -0.195692493061 0
0.236521405108 -0.195673401334 0
0.239478753639 -0.187051397842 0
0.240285723012 -0.182157256402 0
0.242412401654 -0.192137902968 0
0.23661112359 -0.195400499049 0
0.240594926032 -0.18699926548 0
0.237533198207 -0.192021173603 0
0.23900017559 -0.188349272372 0
0.239818525577 -0.191221902194 0
0.240119681275 -0.191230386895 0
0.23926730734 -0.190819049261 0
0.241938243569 -0.190336448682 0
0.240996045234 -0.188502403165 0
0.237393004029 -0.195389347233 0
0.242559336186 -0.19540953522 0
0.240300755781 -0.180332445959 0
0.239527069182 -0.181925267332 0
0.238736783342 -0.179127730063 0
0.241761117605 -0.179958047502 0
0.242279291046 -0.182050890076 0
0.238135342916 -0.179996994192 0
0.237615783649 -0.182130282961 0
0.23819081375 -0.190370974804 0
0.241103452644 -0.188637831894 0
0.242057176907 -0.18518026939 0
0.237294926156 -0.192119073075 0
0.238827409643 -0.188637446107 0
0.237871810859 -0.185180621009 0
0.239810749628 -0.1834257933 0
0.240622953861 -0.194681516051 0
0.240112141693 -0.18326808003 0
0.241893695905 -0.193726857245 0
0.242589114121 -0.191817901958 0
0.241096827122 -0.197956464067 0
0.236690790105 -0.194892487025 0
0.243269246223 -0.194917299521 0
0.240380531083 -0.178211359166 0
0.238628064994 -0.19064348816 0
0.241365831981 -0.179113861616 0
0.241292030702 -0.190643459372 0
0.242027184492 -0.189742474243 0
0.243070169869 -0.195742496765 0
0.236886532076 -0.195721099939 0
0.237928758339 -0.189732198953 0
0.238020856956 -0.193836668101 0
0.239455928462 -0.180404760852 0
0.23692174479 -0.19325034872 0
0.238403665077 -0.187971666306 0
0.239030776649 -0.18713549415 0
0.240869996663 -0.190422630424 0
0.236337622168 -0.196128854306 0
0.24363122027 -0.196146573079 0
0.239991656375 -0.187797286901 0
0.238993131258 -0.198141408569 0
0.243051627025 -0.193339069257 0
0.239746863008 -0.180087923524 0
0.241542731597 -0.18796239942 0
0.240918112685 -0.186190941985 0
0.240449869292 -0.192098317078 0
0.236558076588 -0.194887753993 0
0.243407469917 -0.194898832575 0
0.241722555296 -0.191819441361 0
0.242598938893 -0.19421423296 0
0.239233030957 -0.185430303487 0
0.238071154777 -0.192029378359 0
0.241749296986 -0.192020036431 0
0.239107267464 -0.193268321645 0
0.240835120254 -0.193282717786 0
0.239979613086 -0.18197039619 0
0.240576296366 -0.197969139331 0
0.238661043051 -0.198707983176 0
0.239728008327 -0.185074135341 0
0.239199840538 -0.17818605558 0
0.24130572856 -0.198757713469 0
0.240250764373 -0.184989970754 0
0.24092263804 -0.181494380587 0
0.239314197262 -0.197870173437 0
0.24054452657 -0.183928217086 0
0.239946203812 -0.187694664734 0
0.239213465374 -0.194467702764 0
0.239993361536 -0.187659587325 0
0.242462096525 -0.183480726783 0
0.237458907768 -0.18347317932 0
0.238177759772 -0.194648949504 0
0.241769921493 -0.194666973233 0
0.238959668362 -0.181373907823 0
0.240443839421 -0.180967700625 0
0.240009453032 -0.183843044047 0
0.239930543941 -0.183801885966 0
0.237161342656 -0.193291646476 0
0.238617929677 -0.191139540249 0
0.240620903502 -0.186459445361 0
0.238220096434 -0.196612295591 0
0.242754241907 -0.193306262756 0
0.242888798057 -0.192925686418 0
0.240493342112 -0.188696527991 0
0.239285984428 -0.186655743989 0
0.236329253253 -0.195931834523 0
0.243636673245 -0.195950516311 0
0.241274680588 -0.182633859044 0
0.239354212528 -0.183903758422 0
0.239438051446 -0.189024259815 0
0.241440060379 -0.198742914385 0
0.240056516783 -0.180768030271 0
0.243093460922 -0.197053807201 0
0.236906939249 -0.197077501194 0
0.240928680083 -0.185262845816 0
0.238958170356 -0.18529395951 0
0.238473370393 -0.198658865153 0
0.23733081554 -0.193938541998 0
0.237641005034 -0.190994961573 0
0.237118711469 -0.195458869029 0
0.237719328481 -0.197436945181 0
0.237727151494 -0.190960641696 0
0.242347600538 -0.191111812579 0
0.242324291536 -0.196550010799 0
0.242250009296 -0.197479039614 0
0.242898531272 -0.195199818003 0
0.238582509409 -0.18238145895 0
0.237665299126 -0.196486334516 0
0.23980627644 -0.183233634322 0
0.239849593633 -0.198224139686 0
0.23982662075 -0.191746701871 0
0.241000286829 -0.187286878983 0
0.240788737928 -0.190196678065 0
0.24009622284 -0.183082640944 0
0.239144898695 -0.190201086458 0
0.243506546282 -0.195838545225 0
0.24097166264 -0.178416272713 0
0.237805424393 -0.194061552797 0
0.242144619949 -0.194077069785 0
0.239720645814 -0.192467533955 0
0.240218608356 -0.192480004473 0
0.238132221823 -0.192114411863 0
0.237027305473 -0.192976336944 0
0.240323957313 -0.179109621888 0
0.239172759976 -0.193017423246 0
0.238341727834 -0.192973658904 0
0.241605126322 -0.192984212712 0
0.236473297412 -0.195779296558 0
0.243263911009 -0.194460071296 0
0.240591885535 -0.184994675947 0
0.237810939615 -0.195197794016 0
0.242138780589 -0.195217591024 0
0.241617614898 -0.197054101526 0
0.236716457921 -0.194439814224 0
0.237162513238 -0.19576268909 0
0.242791645307 -0.195784822962 0
0.242300199471 -0.180754854436 0
0.239979242744 -0.18229571062 0
0.242906226761 -0.196935389313 0
0.23706560231 -0.196924052542 0
0.238422981962 -0.188970782893 0
0.240757285616 -0.179927350482 0
0.239986076857 -0.184292067306 0
0.239741298509 -0.179201462779 0
0.242415980355 -0.190836568468 0
0.241544378867 -0.189030919831 0
0.238801452392 -0.186870430684 0
0.238237366916 -0.179095566704 0
0.237664356739 -0.180793545399 0
0.242752728096 -0.193296946225 0
0.237146206354 -0.194753016429 0
0.242809162842 -0.194768582285 0
0.241264289494 -0.194255207695 0
0.237531256938 -0.190857396832 0
0.23894353286 -0.186605414824 0
0.239592245217 -0.184965422675 0
0.238591227607 -0.19422324772 0
0.23985963941 -0.195869638419 0
0.241961136741 -0.186937250949 0
0.237968205489 -0.18693738839 0
0.238854021613 -0.189494552894 0
0.241003690916 -0.189458663697 0
0.236439838591 -0.196454070761 0
0.243536334474 -0.196469515767 0
0.239335382427 -0.185163097285 0
0.241042170316 -0.186762452862 0
0.240184276934 -0.185230720643 0
0.241706858243 -0.195436370537 0
0.23881877277 -0.178439994252 0
0.241358481319 -0.190486940989 0
0.243305427361 -0.195880132642 0
0.236653917222 -0.195858328252 0
0.239403688075 -0.190515994374 0
0.239141630211 -0.179676516441 0
0.240536163765 -0.190521923117 0
0.239538739127 -0.184312596878 0
0.240703308111 -0.19636475956 0
0.240855346756 -0.198855846902 0
0.242269801803 -0.19093796866 0
0.238057324318 -0.189492502026 0
0.24329532087 -0.195304184339 0
0.236665038374 -0.195287188814 0
0.243196171029 -0.19614494118 0
0.236767443129 -0.196097563061 0
0.239381335016 -0.181039402788 0
0.242045493606 -0.19134311333 0
0.241882121531 -0.179150275196 0
0.240056643109 -0.177756763937 0
0.239811931336 -0.181053128773 0
0.237036425217 -0.193210348855 0
0.237912770946 -0.191488122098 0
0.238939819125 -0.193937836205 0
0.241003552181 -0.193954036765 0
0.240273127596 -0.187180985536 0
0.24033471278 -0.184046128979 0
0.239531535944 -0.177944500531 0
0.242406106416 -0.197831743475 0
0.237369084064 -0.193849867556 0
0.242566951124 -0.193864609487 0
0.241753616228 -0.189033479227 0
0.237393817158 -0.197630456322 0
0.239189742874 -0.198926362017 0
0.242841010695 -0.192489732632 0
0.238104272194 -0.195577792293 0
0.240260778488 -0.182803564693 0
0.241557279381 -0.18905924167 0
0.241718483001 -0.188650175446 0
0.240395720434 -0.184896849003 0
0.241236558904 -0.187018033607 0
0.238506685571 -0.189118706646 0
0.236851881035 -0.195170641357 0
0.241388303457 -0.180757562881 0
0.241137277318 -0.182097490722 0
0.236905296219 -0.194737762279 0
0.243051429383 -0.19476810797 0
0.23861569634 -0.194425214853 0
0.2413293748 -0.194442848365 0
0.239818261913 -0.182194193157 0
0.242283885262 -0.192628093055 0
0.242295279451 -0.193674450576 0
0.239690417781 -0.182831196724 0
0.238205632317 -0.188706352634 0
0.239502221985 -0.1857873667 0
0.237439496654 -0.192860737085 0
0.237111295354 -0.195476380256 0
0.242843348882 -0.195496670681 0
0.240246028979 -0.198416873656 0
0.240572842777 -0.186323213885 0
0.240539238009 -0.187933048685 0
0.237130253145 -0.1924619347 0
0.240498199776 -0.185743160342 0
0.238498192949 -0.180734927724 0
0.237314469262 -0.192904897621 0
0.240582235505 -0.18717422424 0
0.240884960991 -0.199062632419 0
0.242850475688 -0.182603783396 0
0.23940482097 -0.187941902545 0
0.239158877959 -0.196179302562 0
0.240132433843 -0.181044979098 0
0.239451220375 -0.186447217782 0
0.239846206221 -0.184055570341 0
0.242804804873 -0.184208684236 0
0.237031410839 -0.182604133701 0
0.239407144404 -0.187161390409 0
0.237121572954 -0.184206783938 0
0.239948258563 -0.18039460047 0
0.240109591298 -0.183993040881 0
0.240124329744 -0.178667804054 0
0.24355573438 -0.195936743157 0
0.236407638746 -0.195916102021 0
0.242746302355 -0.181148255966 0
0.24240027179 -0.180024316863 0
0.239716021681 -0.198785350031 0
0.237540309232 -0.180020948747 0
0.23718381856 -0.181185953126 0
0.242625185366 -0.186057279306 0
0.242128039473 -0.187897567521 0
0.240046094438 -0.182391123845 0
0.237303025758 -0.186057352795 0
0.237798742886 -0.187896255097 0
0.24317894171 -0.194828244545 0
0.241440557171 -0.196596160859 0
0.239802352498 -0.18688839061 0
0.240788960515 -0.177906909035 0
0.23861780207 -0.179673485242 0
0.241404530105 -0.178360567244 0
0.240645151475 -0.181232582453 0
0.242955061749 -0.193835306793 0
0.243291613971 -0.195604223043 0
0.236667863998 -0.195584712014 0
0.237662107147 -0.193599479619 0
0.243444218576 -0.195293338885 0
0.236518935574 -0.195277818727 0
0.240337694097 -0.193589184918 0
0.239305832802 -0.185587196894 0
0.24052147739 -0.198763751047 0
0.239508578873 -0.178685196322 0
0.240777225725 -0.188381029249 0
0.240497371532 -0.191709680713 0
0.239438110767 -0.191720271791 0
0.236837132335 -0.194363680152 0
0.240772002206 -0.18612148055 0
0.238301973031 -0.182948210586 0
0.240193766288 -0.183776948504 0
0.242534068703 -0.195623978104 0
0.239930752972 -0.182491965816 0
0.239167564281 -0.186030246422 0
0.241372943456 -0.179780231217 0
0.239969904993 -0.182132177449 0
0.236742313213 -0.194032047623 0
0.239061590756 -0.189751349085 0
0.23955387503 -0.17998612489 0
0.239666451988 -0.190212015031 0
0.239114458926 -0.187878782172 0
0.241867072345 -0.184274159741 0
0.24009718534 -0.190092808983 0
0.2398396357 -0.190097325515 0
0.238064885339 -0.184273831997 0
0.240259150657 -0.186070748296 0
0.240458102616 -0.17958949616 0
0.241948107477 -0.183070817444 0
0.243492079636 -0.195388166511 0
0.236479947499 -0.195348269883 0
0.23919373813 -0.199137682957 0
0.23968619979 -0.183778203187 0
0.243216598258 -0.194019421354 0
0.240215489001 -0.179748464996 0
0.238366226759 -0.1785831521 0
0.23721423443 -0.195123408819 0
0.242739336489 -0.195141944075 0
0.237594280887 -0.195626422774 0
0.242356711584 -0.195648093005 0
0.23912155579 -0.179097556129 0
0.237250451618 -0.192271852305 0
0.241689201974 -0.181965179728 0
0.243115865607 -0.195780065597 0
0.24063787904 -0.185895247322 0
0.238699124843 -0.181686492345 0
0.243121125838 -0.194379749922 0
0.237018452075 -0.195918595812 0
0.242936960671 -0.195941699174 0
0.240733941291 -0.193178121965 0
0.242016556805 -0.191550866148 0
0.241309728905 -0.185798381634 0
0.237447694789 -0.19433689683 0
0.242504563786 -0.194351877589 0
0.238515138897 -0.19156382999 0
0.239920518933 -0.182859589744 0
0.241386682586 -0.191597610501 0
0.240638704815 -0.185186568683 0
0.240635200639 -0.178524353248 0
0.237535651273 -0.191063396079 0
0.238630291308 -0.185827794482 0
0.239310332182 -0.191344654831 0
0.240630306779 -0.191353347129 0
0.241604739489 -0.19308896296 0
0.238569498916 -0.189334854043 0
0.239122282398 -0.199243341247 0
0.238203035402 -0.19503411349 0
0.241744465014 -0.195053616248 0
0.240934504905 -0.179363122403 0
0.241435618 -0.189486663926 0
0.238493901804 -0.189486822809 0
0.239660072201 -0.184481627973 0
0.240010294482 -0.182919466247 0
0.239361348294 -0.19858688199 0
0.239400890374 -0.188671881929 0
0.238923584793 -0.191715182086 0
0.242647415498 -0.19205954549 0
0.240482727027 -0.190824913035 0
0.240543550094 -0.188731139863 0
0.240286106108 -0.184359773125 0
0.243551836634 -0.195685832958 0
0.236412886324 -0.195668657528 0
0.238864589283 -0.18784212722 0
0.23806048668 -0.193553747611 0
0.241884930026 -0.193557049567 0
0.241977647102 -0.190014334774 0
0.238636152916 -0.19336789901 0
0.241290586641 -0.193366664047 0
0.236287425745 -0.196086945036 0
0.243680839854 -0.196106216478 0
0.238732928211 -0.186958142558 0
0.240957900751 -0.197211270652 0
0.242975077051 -0.193296938675 0
0.240852503904 -0.19183398592 0
0.241396747812 -0.189421320824 0
0.239999820188 -0.182521942258 0
0.239687300472 -0.185638761522 0
0.2378104051 -0.179338905989 0
0.242035090598 -0.192688229877 0
0.243295933803 -0.194511710255 0
0.236664911914 -0.19450280432 0
0.237720567655 -0.192226254153 0
0.237976239652 -0.189998276704 0
0.240323197008 -0.184293182041 0
0.238615970465 -0.190158250683 0
0.239634003653 -0.181341652501 0
0.241574158345 -0.189911839506 0
0.240990479214 -0.189481404943 0
0.239638947586 -0.194721591608 0
0.241109877594 -0.187980181685 0
0.241903971578 -0.18052662931 0
0.241828545244 -0.188941168985 0
0.242893007019 -0.192695977174 0
0.240307728307 -0.195696275436 0
0.238279717275 -0.188522816736 0
0.239638965154 -0.187958836971 0
0.238931697335 -0.197355021676 0
0.238289640194 -0.193118110188 0
0.23857301618 -0.187630283426 0
0.239675020241 -0.183929489907 0
0.23869882859 -0.188098086917 0
0.237873276511 -0.19147796264 0
0.238017132134 -0.180520200787 0
0.237838274123 -0.181508558034 0
0.236822424225 -0.195963395898 0
0.243134842722 -0.195986633391 0
0.243630571103 -0.195906698689 0
0.236337607884 -0.195891909177 0
0.240362502206 -0.177683328116 0
0.240268751511 -0.181009113881 0
0.241347798213 -0.187635522437 0
0.239850241722 -0.182770601175 0
0.242051607298 -0.194607770537 0
0.238565242493 -0.197712080111 0
0.243069799346 -0.193471228228 0
0.240220543665 -0.18368784421 0
0.240068483493 -0.185794147725 0
0.241159676432 -0.187224458629 0
0.238478125338 -0.190148674432 0