# vtk DataFile Version 2.0
Generated with Solid Solver
ASCII
DATASET UNSTRUCTURED_GRID
POINTS 999 float 
0.2 4.325 0.0
1.4 4.325 0.0
1.4 4.825 0.0
0.2 4.825 0.0
1.4 4.34523264049 0.0
1.4 4.36751203886 0.0
1.4 4.39204525371 0.0
1.4 4.4190602782 0.0
1.4 4.44880817466 0.0
1.4 4.48156541084 0.0
1.4 4.51763640748 0.0
1.4 4.5573564007 0.0
1.4 4.60109451608 0.0
1.4 4.64925723872 0.0
1.4 4.70229217343 0.0
1.4 4.76069218095 0.0
1.33333333333 4.825 0.0
1.26666666667 4.825 0.0
1.2 4.825 0.0
1.13333333333 4.825 0.0
1.06666666667 4.825 0.0
1.0 4.825 0.0
0.933333333334 4.825 0.0
0.866666666668 4.825 0.0
0.800000000001 4.825 0.0
0.733333333334 4.825 0.0
0.666666666668 4.825 0.0
0.600000000001 4.825 0.0
0.533333333334 4.825 0.0
0.466666666667 4.825 0.0
0.4 4.825 0.0
0.333333333334 4.825 0.0
0.266666666667 4.825 0.0
0.2 4.76069218095 0.0
0.2 4.70229217343 0.0
0.2 4.64925723872 0.0
0.2 4.60109451608 0.0
0.2 4.5573564007 0.0
0.2 4.51763640748 0.0
0.2 4.48156541084 0.0
0.2 4.44880817466 0.0
0.2 4.4190602782 0.0
0.2 4.39204525371 0.0
0.2 4.36751203886 0.0
0.2 4.34523264049 0.0
0.212131543907 4.30926329506 0.0
0.224675715302 4.29385348652 0.0
0.23762369102 4.27878141198 0.0
0.250966423879 4.26405760374 0.0
0.264694484585 4.24969246611 0.0
0.278798324214 4.23569599189 0.0
0.293267939266 4.22207810803 0.0
0.308093289028 4.20884826442 0.0
0.323263842145 4.19601585877 0.0
0.338769084145 4.18358978512 0.0
0.354597997314 4.17157887342 0.0
0.37073960121 4.15999145532 0.0
0.387182441982 4.14883575334 0.0
0.403915091795 4.13811952025 0.0
0.420925712897 4.12785033813 0.0
0.438202430937 4.11803537461 0.0
0.455733079095 4.10868154223 0.0
0.473505374364 4.09979539439 0.0
0.491506842655 4.09138316882 0.0
0.509724826085 4.0834507802 0.0
0.528146580414 4.07600377808 0.0
0.546759103951 4.06904741762 0.0
0.56554943677 4.06258654322 0.0
0.584504260001 4.05662573401 0.0
0.60361041518 4.0511691282 0.0
0.622854334779 4.04622060039 0.0
0.642222678753 4.04178358113 0.0
0.661701681839 4.03786122392 0.0
0.681277836375 4.03445624851 0.0
0.700937245817 4.03157107217 0.0
0.720666255912 4.02920769845 0.0
0.740450894784 4.02736780161 0.0
0.76027736978 4.02605266363 0.0
0.780131702711 4.02526321235 0.0
0.799999999998 4.025 0.0
0.819868297285 4.02526321235 0.0
0.839722630216 4.02605266363 0.0
0.859549105212 4.02736780161 0.0
0.879333744085 4.02920769845 0.0
0.89906275418 4.03157107217 0.0
0.918722163621 4.03445624851 0.0
0.938298318157 4.03786122392 0.0
0.957777321244 4.04178358113 0.0
0.977145665218 4.04622060039 0.0
0.996389584817 4.0511691282 0.0
1.01549574 4.05662573401 0.0
1.03445056323 4.06258654322 0.0
1.05324089605 4.06904741762 0.0
1.07185341958 4.07600377808 0.0
1.09027517391 4.0834507802 0.0
1.10849315734 4.09138316882 0.0
1.12649462563 4.09979539439 0.0
1.1442669209 4.10868154222 0.0
1.16179756906 4.1180353746 0.0
1.1790742871 4.12785033813 0.0
1.1960849082 4.13811952024 0.0
1.21281755802 4.14883575334 0.0
1.22926039879 4.15999145532 0.0
1.24540200269 4.17157887342 0.0
1.26123091585 4.18358978512 0.0
1.27673615785 4.19601585877 0.0
1.29190671097 4.20884826442 0.0
1.30673206073 4.22207810803 0.0
1.32120167579 4.23569599189 0.0
1.33530551541 4.24969246611 0.0
1.34903357612 4.26405760374 0.0
1.36237630898 4.27878141198 0.0
1.3753242847 4.29385348652 0.0
1.38786845609 4.30926329506 0.0
1.05632730172 4.46025283906 0.0
0.549964048968 4.4630053958 0.0
0.806135520676 4.31186690218 0.0
0.603895783049 4.26079310371 0.0
1.22984770884 4.38318704125 0.0
0.3703382852 4.38423552752 0.0
0.995322815839 4.25565031136 0.0
0.728315816804 4.1765935937 0.0
0.872128173905 4.17288724072 0.0
1.14059401893 4.27298468684 0.0
0.461553191009 4.27181671009 0.0
0.784706775856 4.56821390922 0.0
0.398287125272 4.57945970538 0.0
1.20625306554 4.58334743514 0.0
0.624100842742 4.1589824436 0.0
0.5257453845 4.18811776279 0.0
0.978502430793 4.15488737058 0.0
1.07419209812 4.18825154482 0.0
0.364313698077 4.28677035763 0.0
1.23509538257 4.28681716733 0.0
0.68124123937 4.39284548972 0.0
1.31679378691 4.35012066749 0.0
0.283206213094 4.35012066749 0.0
0.791498533126 4.11467141721 0.0
0.931481076052 4.3801344917 0.0
0.966719065571 4.62778042839 0.0
0.684451667517 4.11068036752 0.0
0.618335406951 4.62686910993 0.0
0.450982331762 4.19686171732 0.0
0.915674266355 4.10995633851 0.0
1.14900051594 4.19689012964 0.0
1.30193709687 4.4481448133 0.0
0.298574667609 4.44816296922 0.0
1.05734787542 4.34990107617 0.0
0.539273225177 4.35252599628 0.0
0.709896798149 4.27721026287 0.0
0.895708916005 4.26924194389 0.0
0.813273511364 4.43835766235 0.0
0.559289631452 4.13230879113 0.0
1.04001407307 4.13281539633 0.0
0.801161810585 4.23146244955 0.0
0.665113819616 4.52056650186 0.0
0.852577362173 4.09111846388 0.0
0.390256727869 4.2242806298 0.0
1.20974450479 4.22428104599 0.0
0.921542541183 4.52778058719 0.0
1.14030889032 4.36437344809 0.0
1.15600477272 4.46808538305 0.0
0.435243219029 4.4750581257 0.0
0.462045157798 4.36654654286 0.0
0.735806812738 4.08472269746 0.0
1.30082934537 4.29793772796 0.0
0.299170654625 4.29793772796 0.0
0.533651712118 4.26265983853 0.0
0.666130919144 4.21652131559 0.0
1.0676097303 4.26179469382 0.0
1.08054433577 4.58530946155 0.0
0.506773767255 4.56568295079 0.0
0.626745312844 4.10124420826 0.0
0.933845304214 4.2106954732 0.0
0.293717639664 4.55175000185 0.0
0.312505022079 4.66426411351 0.0
1.3058164124 4.55154930624 0.0
1.29054387065 4.66302765963 0.0
0.973467966326 4.09941619478 0.0
0.487935413164 4.15087084015 0.0
0.461549079751 4.68836834982 0.0
1.11203248746 4.15093503889 0.0
1.14453515393 4.70617370303 0.0
0.840217564202 4.68891146633 0.0
0.585347033288 4.20539048534 0.0
0.619177396637 4.34227576306 0.0
0.331644410315 4.24962190462 0.0
1.26835558968 4.24962190462 0.0
1.01536156978 4.19987473052 0.0
0.809331033562 4.07065709122 0.0
0.982321540791 4.33437358971 0.0
0.725600576914 4.66999651799 0.0
0.812291456186 4.16642942492 0.0
0.335887692543 4.33918235669 0.0
1.26344844681 4.34017131907 0.0
1.23449730504 4.49457441524 0.0
1.34334172095 4.40539551957 0.0
0.256658279045 4.40539551957 0.0
0.741646926828 4.34287908527 0.0
0.674799084703 4.16673768522 0.0
1.18647435526 4.30955189749 0.0
0.360563250283 4.49596479569 0.0
0.873716483853 4.33845499203 0.0
0.418704489949 4.31146264283 0.0
0.492670911224 4.22931614809 0.0
0.403480880356 4.19046776931 0.0
1.19651541215 4.1904686246 0.0
0.728649253738 4.46214546491 0.0
1.00883674467 4.40174664879 0.0
1.11035034557 4.23161841276 0.0
0.261968539765 4.3130079512 0.0
1.33803146023 4.3130079512 0.0
0.74649980488 4.1318354354 0.0
0.927597725248 4.1577597079 0.0
0.892956618256 4.07619338913 0.0
0.659794281787 4.07951387326 0.0
0.587663534405 4.09486537006 0.0
0.942353209926 4.07935300973 0.0
1.01493747319 4.09476013719 0.0
0.613130017774 4.41369803882 0.0
0.449373501074 4.15377191978 0.0
0.514840228377 4.12225850006 0.0
0.497057592 4.41333092106 0.0
1.15061382426 4.15379293084 0.0
1.08514419473 4.12228328152 0.0
0.745617635771 4.23098957592 0.0
0.87523452213 4.59853036549 0.0
0.855262884783 4.2258970831 0.0
1.01126200032 4.53280064162 0.0
1.09391916408 4.40632408872 0.0
1.04436265455 4.71482000827 0.0
0.314320181089 4.38773968607 0.0
1.28649331902 4.38743720145 0.0
0.771211579291 4.06316862024 0.0
0.432259099658 4.24006002157 0.0
0.698583889427 4.07144353526 0.0
1.16802128371 4.238862881 0.0
1.09587629216 4.3086676659 0.0
1.35920470355 4.35666960471 0.0
0.240795296449 4.35666960471 0.0
0.504003580654 4.30815758118 0.0
0.579942709371 4.5342075073 0.0
0.875915224914 4.12815792528 0.0
0.426503136644 4.40717733008 0.0
0.57541416445 4.30365301522 0.0
0.683877978289 4.33161848113 0.0
0.888061695889 4.44633509246 0.0
0.26012287522 4.49859249103 0.0
1.33987712478 4.49859249103 0.0
0.801393572636 4.37060096582 0.0
0.558460082533 4.72496728209 0.0
1.1741923373 4.41132830101 0.0
0.83220012886 4.12779415912 0.0
1.02815069622 4.30053276509 0.0
0.948308583502 4.2880204454 0.0
0.846588933095 4.50834596945 0.0
0.343666800815 4.43485820652 0.0
1.25632767671 4.43480360053 0.0
0.97849585731 4.47031535602 0.0
1.10170977548 4.51507265998 0.0
0.662193131828 4.26809398492 0.0
0.400503668388 4.26881657105 0.0
1.20117145985 4.26130427377 0.0
0.350957892513 4.21796558019 0.0
1.24904210749 4.21796558019 0.0
0.771964652188 4.18905379403 0.0
0.932165148285 4.72736281402 0.0
0.373672364094 4.73321357765 0.0
0.760245937722 4.28409350779 0.0
0.848718469252 4.05767763075 0.0
1.23385612561 4.7358294747 0.0
0.846421485813 4.28065918421 0.0
0.651597058631 4.13043284014 0.0
0.650489852552 4.72138045504 0.0
0.58457834847 4.16375088261 0.0
0.48701309933 4.18859927013 0.0
0.708495738406 4.58856947756 0.0
1.11203398596 4.18878062515 0.0
0.54865558244 4.10250047869 0.0
1.05126102377 4.10234629471 0.0
0.300013757486 4.26259646442 0.0
1.29998624251 4.26259646442 0.0
0.9465032388 4.12718070354 0.0
0.708587583337 4.14146095907 0.0
0.973348904468 4.19537871864 0.0
0.628721855632 4.19538356945 0.0
0.380175010018 4.34021880077 0.0
0.662092932411 4.45899041267 0.0
1.05133526787 4.22221992007 0.0
0.528087045766 4.64327882187 0.0
1.22233124543 4.33521693908 0.0
1.19001193434 4.36273586668 0.0
0.853024099244 4.39544003492 0.0
0.542800296246 4.22324366905 0.0
0.247706318737 4.45239119247 0.0
1.35229368126 4.45239119247 0.0
0.599153768578 4.12953797005 0.0
1.01616570494 4.16227683178 0.0
0.744705786938 4.40569544575 0.0
1.31929001115 4.73702550052 0.0
0.777615355331 4.15113602511 0.0
1.33132411895 4.60631378639 0.0
0.265621610877 4.60975488866 0.0
0.532023338888 4.15374454388 0.0
1.0697792195 4.15241429251 0.0
0.286371037106 4.73010312914 0.0
0.497725885905 4.50153668256 0.0
0.46053455822 4.31587947599 0.0
0.433799237968 4.54629400991 0.0
0.388624781906 4.65094200004 0.0
0.554823673752 4.40451940232 0.0
1.1421595646 4.31818301431 0.0
1.14760043966 4.61655103139 0.0
1.21258698805 4.65320200685 0.0
1.16279096046 4.53292621409 0.0
0.995762647814 4.12508772517 0.0
0.456229040627 4.61456685246 0.0
0.707289391156 4.21520271873 0.0
0.763036833302 4.74285445535 0.0
0.78386198569 4.49787013126 0.0
[...]
POINT_DATA 999
VECTORS Displacement float
-0.00214811024539 -0.157390973728 0
0.00201727852222 -0.157456283134 0
0.0 -0.16 0
0.0 -0.16 0
0.00217458276127 -0.157444226283 0
0.0023272546288 -0.157427286701 0
0.00246473451504 -0.157406452362 0
0.00258152660355 -0.157394819024 0
0.00265223491406 -0.157399388513 0
0.00269596164143 -0.157427541404 0
0.00267060759249 -0.157485606798 0
0.00257025834885 -0.157580788383 0
0.002383408431 -0.157743013829 0
0.00207331308466 -0.157990817235 0
0.00162491709816 -0.158372069322 0
0.000980246460504 -0.158960985691 0
0.0 -0.16 0
0.0 -0.16 0
0.0 -0.16 0
0.0 -0.16 0
0.0 -0.16 0
0.0 -0.16 0
0.0 -0.16 0
0.0 -0.16 0
0.0 -0.16 0
0.0 -0.16 0
0.0 -0.16 0
0.0 -0.16 0
0.0 -0.16 0
0.0 -0.16 0
0.0 -0.16 0
0.0 -0.16 0
0.0 -0.16 0
-0.000989821116436 -0.158948223452 0
-0.00164772443384 -0.158347477541 0
-0.00212860333124 -0.157955048681 0
-0.00244055583625 -0.157696589989 0
-0.00263656425279 -0.157527987735 0
-0.00274879793998 -0.157428649 0
-0.00278420993737 -0.157368613483 0
-0.0027492651787 -0.157338613092 0
-0.00268656424423 -0.157332512307 0
-0.00257716003049 -0.157342887598 0
-0.00244649455616 -0.157362824762 0
-0.00229998539237 -0.157379190332 0
-0.00202280453194 -0.157310249991 0
-0.00188488750926 -0.157220753149 0
-0.00173553604523 -0.15711662906 0
-0.00157194941273 -0.156997992526 0
-0.00139521518094 -0.156859913736 0
-0.00121021691168 -0.156699128098 0
-0.00101484118184 -0.156517994576 0
-0.000801669484599 -0.156314242484 0
-0.000574268869853 -0.156072274446 0
-0.00034305249408 -0.155810919301 0
-9.74010741161e-05 -0.155512430988 0
0.000170351510067 -0.155175791786 0
0.000445534678453 -0.15478742849 0
0.000740732120185 -0.154348447647 0
0.00105255518388 -0.153843835643 0
0.00140225537276 -0.153235586527 0
0.0017738212814 -0.152454420481 0
0.00213655566264 -0.151525019295 0
0.0024024828287 -0.150602492087 0
0.00259290457362 -0.149691397151 0
0.00271597563174 -0.148828988614 0
0.00276772988419 -0.147996844108 0
0.00276882831434 -0.147224204174 0
0.00271314198011 -0.146489881547 0
0.00261407840471 -0.145817228712 0
0.00246270330393 -0.145194206364 0
0.00228052378154 -0.144634695807 0
0.0020588755898 -0.144135386813 0
0.00181709439285 -0.143705279592 0
0.00154010985931 -0.14332986773 0
0.00124627244753 -0.143025455709 0
0.00092559310018 -0.142779375359 0
0.000598160651393 -0.14259934044 0
0.000257559481584 -0.142486735568 0
-0.000116422423416 -0.142417900541 0
-0.00047720135739 -0.142440367472 0
-0.000825549969851 -0.142577523217 0
-0.00115388699664 -0.142758031862 0
-0.00146666479338 -0.143005400291 0
-0.00176085635529 -0.143314972454 0
-0.0020375031638 -0.14368987278 0
-0.00228824150907 -0.144131410403 0
-0.00249867453352 -0.14462093805 0
-0.00267925872752 -0.145176254481 0
-0.00282930115877 -0.145798423695 0
-0.00292893143689 -0.146467684817 0
-0.00298524572716 -0.147198189634 0
-0.00298495065488 -0.147972888052 0
-0.00293144083053 -0.148804536888 0
-0.00281030487474 -0.14966011241 0
-0.00261965606903 -0.150572320942 0
-0.0023534339938 -0.15149680335 0
-0.00199227332643 -0.152427682379 0
-0.0016111375389 -0.15323074628 0
-0.00125431139921 -0.153850212063 0
-0.000936132772588 -0.154362730679 0
-0.000634988647188 -0.154808033111 0
-0.000354321022256 -0.155201832261 0
-8.12852538362e-05 -0.155543166888 0
0.000169324124483 -0.155845860372 0
0.000405307330417 -0.156111013857 0
0.000637339461996 -0.156356514496 0
0.000854965256544 -0.156563456347 0
0.00105462572556 -0.156747615267 0
0.00124386111202 -0.156911311197 0
0.00142472965715 -0.157052161782 0
0.0015923993273 -0.157173539711 0
0.00174581775038 -0.157280396213 0
0.00188781160503 -0.157372659762 0
0.00182862107788 -0.154710630738 0
-0.00188221695873 -0.154688607391 0
-3.14312672514e-05 -0.149560745712 0
-0.00109575723864 -0.150121276802 0
0.00233629068976 -0.155944223528 0
-0.00245049392133 -0.155922987903 0
0.000897148739004 -0.149985684428 0
-0.00011618215134 -0.14635262172 0
-9.44482466736e-05 -0.146258814625 0
0.00151787506686 -0.153511193278 0
-0.00165252451147 -0.153443087011 0
-0.000137490926469 -0.155499758082 0
-0.00213314320796 -0.157437545907 0
0.00206559271982 -0.15751629855 0
9.20040811956e-05 -0.147483873375 0
-0.000471915056108 -0.150649564886 0
-0.000354290486138 -0.147442196436 0
0.000294629145826 -0.150632475081 0
-0.00183230887597 -0.15550910269 0
0.00169065599501 -0.155525290557 0
-0.00102379869053 -0.152050680025 0
0.00221422659575 -0.156779319909 0
-0.00233723395286 -0.156734644962 0
-5.46567539989e-05 -0.144492484507 0
0.000989556411312 -0.151868614598 0
0.000923606779106 -0.156977830854 0
0.000603643549729 -0.145281275813 0
-0.0010543004664 -0.157014125323 0
-0.000671404866052 -0.153087538098 0
-0.000818133425403 -0.145252182791 0
0.000500280267991 -0.153087525399 0
0.0025853573182 -0.156988760936 0
-0.00267957038631 -0.156948919366 0
0.00171524134783 -0.152897525313 0
-0.00186674150681 -0.152995782657 0
-0.00061929884106 -0.149055814243 0
0.000463842869435 -0.14890445667 0
6.01778435071e-05 -0.152661526964 0
0.000716518246587 -0.14863484522 0
-0.000904172312639 -0.148600845697 0
-8.2112765525e-05 -0.147475326078 0
-0.00105826476352 -0.154856599622 0
-0.000549846205461 -0.144105656108 0
-0.00107816481932 -0.154807328212 0
0.000916924624946 -0.154828554827 0
0.000874851319355 -0.154934316163 0
0.00208631435991 -0.154484157812 0
0.00225467191659 -0.155883076443 0
-0.00237175466056 -0.156034225484 0
-0.00220446384688 -0.154458163292 0
0.000486865809278 -0.144063968716 0
0.00178930822138 -0.156517514787 0
-0.00192713694479 -0.156474996252 0
-0.00139791396961 -0.151634783035 0
-0.000502893974821 -0.148069444804 0
0.00123708424139 -0.151642253959 0
0.00162291761942 -0.156836500665 0
-0.00181850076576 -0.156626163536 0
0.00113393003981 -0.146176435964 0
0.000278950131547 -0.147919074777 0
-0.00251549585769 -0.157573468153 0
-0.00174419427524 -0.158471385711 0
0.0024510856146 -0.15760406589 0
0.00172913630249 -0.158479112842 0
-0.00137706311965 -0.146129873094 0
0.00029935792011 -0.151416291772 0
-0.00124209756151 -0.158443510303 0
-0.000493251944017 -0.151397649736 0
0.00109690958496 -0.15868173237 0
0.000168101376803 -0.157812260001 0
-0.000619490416218 -0.149358435746 0
-0.00139250879178 -0.151598713816 0
-0.00139716051686 -0.155960584846 0
0.00124505241286 -0.155996469215 0
0.000367465624163 -0.149248685875 0
-0.000214497591184 -0.143435017884 0
0.00124091956534 -0.151453222131 0
-0.000389268954563 -0.157509656893 0
-0.00010429611793 -0.145800389456 0
-0.00226016304246 -0.156122243796 0
0.00214015861636 -0.156150627556 0
0.00244877720791 -0.156838444018 0
0.00251246252029 -0.15710561163 0
-0.00262031067116 -0.157057136918 0
-0.000517764246834 -0.150481464503 0
-3.30120417344e-05 -0.146741363749 0
0.00187868561526 -0.154772074308 0
-0.00254487460807 -0.1568595006 0
0.000492795902141 -0.150452585886 0
-0.00202277192619 -0.154676759409 0
-0.00114964565849 -0.152188511693 0
-0.000508231416622 -0.154407312695 0
0.000335240889214 -0.154422059974 0
-0.000631616124798 -0.1533406665 0
0.00154798827797 -0.153138699064 0
0.00101822283853 -0.152296410635 0
-0.00205780127774 -0.156890504685 0
0.00192391909973 -0.156941086881 0
0.000107338540107 -0.145099248869 0
-0.000256903175854 -0.146550540116 0
-0.00106874969221 -0.144169685851 0
0.00128747354904 -0.145012652132 0
0.00156496552757 -0.147069890067 0
-0.00151990932192 -0.145042055896 0
-0.00179601975771 -0.147126888709 0
-0.00152249179531 -0.153128512432 0
0.00025320370549 -0.152893601484 0
0.00111083778344 -0.150005227345 0
-0.00216359873007 -0.154547269488 0
-0.000442707837297 -0.152886312514 0
-0.00131726291948 -0.14998164596 0
-0.000298916377274 -0.147622807654 0
0.000462030302467 -0.156177724665 0
0.000114192788022 -0.147492496137 0
0.00143961555278 -0.155557659932 0
0.00200759815205 -0.15433101568 0
0.000815136152069 -0.158564538038 0
-0.0025195736357 -0.156554344873 0
0.00240712412546 -0.156597413165 0
0.000235430408113 -0.143333551428 0
-0.00132228210943 -0.153885828203 0
0.00101070860414 -0.144193149179 0
0.00114801517971 -0.15389350133 0
0.00168430680992 -0.152966714378 0
0.00226255149421 -0.157148466622 0
-0.00238437369916 -0.157094152146 0
-0.00182088171767 -0.152962628747 0
-0.00155660214933 -0.155642053659 0
-0.00042092251707 -0.145184306949 0
-0.00239912841597 -0.155406609619 0
-0.00149812154421 -0.151505005485 0
-0.000928438327234 -0.1506161328 0
0.000677372819693 -0.15305404347 0
-0.00271479815022 -0.157344771644 0
0.00263125566931 -0.157387982853 0
-5.19116745413e-05 -0.151032574805 0
-0.000764523090515 -0.158692259082 0
0.00229721216533 -0.155475983941 0
-0.000240184874007 -0.144870910734 0
0.00135471824083 -0.151504143346 0
0.000846431695097 -0.149957662058 0
0.000328823190209 -0.154278364128 0
-0.00260316128662 -0.15653333574 0
0.00250491847534 -0.156561594482 0
0.00133924724721 -0.154161311498 0
0.00195294926296 -0.15597585086 0
-0.000848130054044 -0.14935719122 0
-0.00165391714975 -0.154759468988 0
0.00142051618249 -0.154778020517 0
-0.000952199426091 -0.155597715017 0
0.000790033784002 -0.155629004363 0
-0.000127430659442 -0.146418909657 0
0.000429712053415 -0.158555874974 0
-0.000987205615191 -0.159106073475 0
-0.000325988951538 -0.148924199414 0
-0.000734642258271 -0.14331455142 0
0.00094843862655 -0.159145867528 0
0.000204731055891 -0.148860148376 0
0.000477620676354 -0.146286817137 0
-0.000529767560031 -0.158487508673 0
2.06729129722e-05 -0.148526242845 0
-0.000523759716517 -0.15187772823 0
-0.000632991404801 -0.156027264418 0
0.000350319467357 -0.151837883627 0
0.0016090731235 -0.148457804562 0
-0.00182282801365 -0.148430466494 0
-0.00155137538833 -0.156433718336 0
0.00140344195741 -0.15647684108 0
-0.000724323081229 -0.146169984223 0
0.000164629174993 -0.145687023171 0
0.000217289977168 -0.148237730232 0
-0.000393849591006 -0.148209017821 0
-0.00223893802856 -0.155513683121 0
-0.0011519805146 -0.153625668647 0
0.000759404589946 -0.150566049077 0
-0.00135500368082 -0.157623599458 0
0.00208507436472 -0.15554485748 0
0.00219163782492 -0.155244975862 0
0.000379707487341 -0.151734439489 0
-0.000959566726785 -0.150752815749 0
-0.00273593436416 -0.157217540836 0
0.00264067528058 -0.15726565173 0
0.000671077701397 -0.147445825878 0
-0.000239753258601 -0.148495939933 0
-0.000516836369181 -0.15198546304 0
0.00103477762623 -0.159134507513 0
-5.53762537709e-05 -0.145429482532 0
0.0022321318498 -0.157985191069 0
-0.00226940301254 -0.157977649251 0
0.00022784081135 -0.149887554496 0
-0.000454615715588 -0.149907372696 0
-0.00111279036918 -0.159067769793 0
-0.00206994786439 -0.155782363056 0
-0.00198257405428 -0.153920154489 0
-0.00217986284505 -0.156866176915 0
-0.0016935135206 -0.158230491558 0
-0.00187491887569 -0.153648219374 0
0.00186916628206 -0.154005560242 0
0.00171414587893 -0.157612368191 0
0.00164188900612 -0.158268043209 0
0.00214708777709 -0.156696876489 0
-0.000949504807808 -0.147200152286 0
-0.0017590760169 -0.157561368745 0
-0.000366583039701 -0.147527715581 0
-0.000122234963122 -0.158731280468 0
-0.000170356032352 -0.154013443957 0
0.000856111393782 -0.150740397002 0
8.60648688455e-05 -0.153889563919 0
0.000159681902682 -0.147399863721 0
-0.000270422056245 -0.15389706036 0
0.0025533573219 -0.157180783873 0
0.000718517702375 -0.143542934574 0
-0.00179557656555 -0.156058107552 0
0.00165375208646 -0.156094051722 0
-0.000562728981128 -0.155134268732 0
0.000392066859979 -0.15515934768 0
-0.00151318089157 -0.154389660192 0
-0.00233703773026 -0.155257826169 0
0.000167950466461 -0.144072245531 0
-0.000679608581993 -0.154968040822 0
-0.00145340645968 -0.155390870704 0
0.0013022268976 -0.1554166645 0
-0.00263116544102 -0.157118898442 0
0.00241856455748 -0.156240862125 0
0.000627445747173 -0.149055968385 0
-0.00178801092961 -0.156773920966 0
0.00164622452547 -0.15682288122 0
0.00120123427206 -0.157937986442 0
-0.00250216912303 -0.156210086468 0
-0.00220565547296 -0.157123889641 0
0.00207679679064 -0.157180181479 0
0.00169718502357 -0.145841907856 0
-1.89924547908e-05 -0.14668944707 0
0.00211118861073 -0.157906933468 0
-0.00217042640053 -0.157883906555 0
-0.00151597612643 -0.152529318481 0
0.000461700664335 -0.144823347559 0
-6.59284460637e-05 -0.148287196148 0
-0.000270182130132 -0.144134846049 0
0.00192109966324 -0.153699413913 0
0.00137580453504 -0.152567898607 0
-0.00117720132881 -0.150529710295 0
-0.00150112341903 -0.144209613397 0
-0.00187167447092 -0.14585480876 0
0.00208547972025 -0.155357789362 0
-0.0022227430919 -0.156481206827 0
0.00209552457751 -0.156520803142 0
0.000956812000366 -0.155894792749 0
-0.0020514923249 -0.153715141043 0
-0.00116108820564 -0.150533085261 0
-3.11665278735e-06 -0.149454979431 0
-0.00111538453861 -0.15587803988 0
-0.000124956270822 -0.157033328476 0
0.000893453572633 -0.151629377978 0
-0.00109649083698 -0.151607037418 0
-0.00121172157406 -0.153078362799 0
0.000992911369111 -0.153067863166 0
-0.00262517471916 -0.1575563751 0
0.00255566970137 -0.157596587806 0
-0.000837613192591 -0.149269118425 0
0.00103050151755 -0.150655893753 0
-0.000306901811084 -0.149682264199 0
0.00128109858846 -0.156776107203 0
-0.00104271703835 -0.143561729759 0
0.00107325772564 -0.15314730109 0
0.00241950893667 -0.157233424693 0
-0.00253402721733 -0.157177699754 0
-0.00080201186105 -0.153915888783 0
-0.000703087056979 -0.144596970901 0
0.000633606509187 -0.153924410655 0
-0.00059610518702 -0.148425463611 0
0.000524459739884 -0.157401558266 0
0.00063129710868 -0.159202671242 0
0.00179217249181 -0.153645333856 0
-0.00167884708783 -0.152566121846 0
0.00241898263893 -0.156854840115 0
-0.00253162091961 -0.15681212604 0
0.00233318166669 -0.157372685415 0
-0.00240987653146 -0.157325233671 0
-0.000429516848436 -0.145767819163 0
0.00164907355932 -0.154263835486 0
0.00145760939661 -0.144297221103 0
-2.91593344171e-05 -0.142961326061 0
-0.000157556631225 -0.145676693927 0
-0.00231305445543 -0.155331390037 0
-0.00178008856445 -0.1543624204 0
-0.00106009762214 -0.156002778658 0
0.000900636819681 -0.156039917677 0
0.000198590437816 -0.150563538769 0
0.000375785131555 -0.148207675904 0
-0.00046817315763 -0.143100632587 0
0.00172867885705 -0.158508337981 0
-0.00208732187011 -0.155904812466 0
0.00194351200476 -0.155937710531 0
0.00145117343013 -0.152202923188 0
-0.00190364441688 -0.158353398227 0
-0.000607623541869 -0.159249938825 0
0.00217216374847 -0.154863135785 0
-0.00145938119519 -0.15688693579 0
-0.000104188815916 -0.147356723629 0
0.00127930912361 -0.152150724705 0
0.00148889316264 -0.152117753153 0
0.000536672468826 -0.149118274875 0
0.00111732361633 -0.15069192335 0
-0.00130748750534 -0.152170740256 0
-0.00237971106805 -0.156686135656 0
0.000906667033115 -0.145689823138 0
0.000599219785115 -0.146905819692 0
-0.00238127227194 -0.156463087334 0
0.00226021611907 -0.156510691391 0
-0.00126888527135 -0.156299156734 0
0.0011141771488 -0.156340659026 0
-5.15599126913e-05 -0.146702679213 0
0.00177399217745 -0.155132523209 0
0.00174075318726 -0.155559015536 0
-7.38012768432e-05 -0.14736309708 0
-0.00164972883743 -0.152161777107 0
-0.00053092650368 -0.149507876948 0
-0.00206188499148 -0.155251820647 0
-0.00223998175124 -0.156941970637 0
0.00211248888145 -0.156992840475 0
0.000181033063509 -0.158870596842 0
-7.87701896053e-05 -0.150803272249 0
-0.000126415962042 -0.152218318375 0
-0.00227551616206 -0.15483911467 0
0.000433429231203 -0.149479158716 0
-0.00114908576108 -0.145663318496 0
-0.00211556486738 -0.155066455597 0
0.00074948627762 -0.151250144261 0
0.000647505111342 -0.159351726435 0
0.00202956173887 -0.147689015574 0
-5.21623153539e-05 -0.152212035691 0
-0.00066019475384 -0.157271566899 0
-2.97837700419e-05 -0.145677040254 0
-4.07264474647e-05 -0.15088193808 0
-0.000223539841889 -0.14810614377 0
0.00184561654737 -0.149192955902 0
-0.00228064285527 -0.147670320032 0
-0.000886857329813 -0.151264317918 0
-0.0020588633894 -0.14916717519 0
-0.000108711512831 -0.145114643669 0
7.38323668452e-05 -0.148055923322 0
2.01572884627e-05 -0.14369791167 0
0.00258700294066 -0.157262149674 0
-0.00269006135413 -0.15720928922 0
0.00206687669285 -0.146284989609 0
0.00185148341458 -0.145174313995 0
-0.000221132804482 -0.159135685438 0
-0.00205107961163 -0.145155155036 0
-0.0022743991265 -0.146297705293 0
0.00150082620851 -0.150916500064 0
0.000950397026546 -0.152498268404 0
-0.000190773566315 -0.146866772679 0
-0.00171162174811 -0.150890138396 0
-0.00115267475804 -0.152480767273 0
0.00235059131119 -0.156469364789 0
0.00107569514 -0.157598736476 0
-0.000226551446214 -0.150335264632 0
0.000585859357026 -0.143099975265 0
-0.00113053178627 -0.144672726798 0
0.00109226147226 -0.143540175903 0
0.000286678006335 -0.145977798054 0
0.00221189567895 -0.155887549424 0
0.00241259854645 -0.157052935932 0
-0.00252695430886 -0.157003677223 0
-0.00183271221856 -0.15550514052 0
0.00252120050316 -0.1568383391 0
-0.00262557366438 -0.156799825574 0
0.000239799472574 -0.155373606262 0
-0.000896743599544 -0.149707085548 0
0.000388694249752 -0.159125481277 0
-0.000463825449869 -0.143715013377 0
0.000627255503284 -0.151519006591 0
-7.4629359815e-05 -0.154726361543 0
-0.000105653555826 -0.154745928896 0
-0.00243254911301 -0.156211194326 0
0.000692825022539 -0.149834341347 0
-0.00113631515998 -0.147794357385 0
-0.000222202043036 -0.148283946887 0
0.00188038509302 -0.156966998181 0
-0.000208256225371 -0.146867602299 0
-0.000857187664728 -0.149778767245 0
0.000968938153848 -0.144790352099 0
-8.07707368129e-05 -0.146541240997 0
-0.00250062567066 -0.155954064949 0
-0.00082010072105 -0.152558384723 0
-0.00037667167759 -0.14480700338 0
-0.000311965361262 -0.152871453633 0
-0.00082298965856 -0.151152366895 0
0.00103047695146 -0.149118572269 0
-0.000357880349179 -0.153735009249 0
0.000181346976153 -0.153741022948 0
-0.00123326337053 -0.149095794103 0
0.000195626319761 -0.149703375216 0
0.000251957344228 -0.144487715768 0
0.00119288351132 -0.147988413613 0
0.00255373999352 -0.156883198448 0
-0.00264202768119 -0.156835201027 0
-0.000598695948986 -0.159400982747 0
-4.55314323063e-06 -0.148285504987 0
0.00239397736071 -0.155960014426 0
7.09717576573e-05 -0.144595750136 0
-0.00142545535076 -0.143739116624 0
-0.00217524671231 -0.156719462154 0
0.0020453032009 -0.15676528395 0
-0.00192756256306 -0.157041776243 0
0.00178969322976 -0.157096575293 0
-0.000754219178303 -0.144096330073 0
-0.00220768217452 -0.154795683988 0
0.00106347907363 -0.146885569876 0
0.00228587633506 -0.157117097678 0
0.000749393145429 -0.150009351533 0
-0.000908367165624 -0.14651809569 0
0.00231564356013 -0.156244764566 0
-0.00229815365841 -0.157221150937 0
0.00217278374581 -0.157280296056 0
0.000550603288099 -0.155082142476 0
0.00157351568964 -0.154010230458 0
0.000480349320379 -0.150462744215 0
-0.0020283685125 -0.156222945118 0
0.00189359403877 -0.156259745006 0
-0.00136699713299 -0.154499236799 0
-0.000169581563748 -0.147141904313 0
0.00118177228536 -0.154536114468 0
0.000627856831747 -0.149144538776 0
0.000434960335751 -0.143606154282 0
-0.00202626220894 -0.153786231183 0
-0.000669742712847 -0.150467588605 0
-0.000842026296476 -0.154436630483 0
0.000675205468363 -0.154451466447 0
0.00122843352928 -0.155070004544 0
-0.00140997268171 -0.152873669556 0
-0.000640462127248 -0.15947491168 0
-0.00153533372033 -0.156674555382 0
0.00138708292683 -0.156722171644 0
0.000635782455238 -0.144354417671 0
0.000474696947996 -0.153540338751 0
-0.000666655895757 -0.153541933331 0
-0.000418818615617 -0.148474828189 0
-0.000265931151607 -0.147366273506 0
-0.000487523360683 -0.159000989013 0
-0.000872209071909 -0.15256109513 0
-0.000895209708256 -0.154023281646 0
0.00204866784683 -0.154658622182 0
0.00035899121399 -0.153334116159 0
0.000704907450044 -0.152602842989 0
0.000266058113963 -0.148378969862 0
0.00258796649416 -0.157095262763 0
-0.00268798970884 -0.157051474875 0
-0.0012431037579 -0.151693401908 0
-0.00163252907224 -0.155745870911 0
0.00148416613572 -0.155770934223 0
0.0016467880478 -0.153241617723 0
-0.00125662468822 -0.155647706578 0
0.00108914102161 -0.155669931232 0
-0.00275537252292 -0.157314514964 0
0.00266675046479 -0.157363380292 0