# vtk DataFile Version 2.0
Generated with Solid Solver
ASCII
DATASET UNSTRUCTURED_GRID
POINTS 999 float 
0.2 4.325 0.0
1.4 4.325 0.0
1.4 4.825 0.0
0.2 4.825 0.0
1.4 4.34523264049 0.0
1.4 4.36751203886 0.0
1.4 4.39204525371 0.0
1.4 4.4190602782 0.0
1.4 4.44880817466 0.0
1.4 4.48156541084 0.0
1.4 4.51763640748 0.0
1.4 4.5573564007 0.0
1.4 4.60109451608 0.0
1.4 4.64925723872 0.0
1.4 4.70229217343 0.0
1.4 4.76069218095 0.0
1.33333333333 4.825 0.0
1.26666666667 4.825 0.0
1.2 4.825 0.0
1.13333333333 4.825 0.0
1.06666666667 4.825 0.0
1.0 4.825 0.0
0.933333333334 4.825 0.0
0.866666666668 4.825 0.0
0.800000000001 4.825 0.0
0.733333333334 4.825 0.0
0.666666666668 4.825 0.0
0.600000000001 4.825 0.0
0.533333333334 4.825 0.0
0.466666666667 4.825 0.0
0.4 4.825 0.0
0.333333333334 4.825 0.0
0.266666666667 4.825 0.0
0.2 4.76069218095 0.0
0.2 4.70229217343 0.0
0.2 4.64925723872 0.0
0.2 4.60109451608 0.0
0.2 4.5573564007 0.0
0.2 4.51763640748 0.0
0.2 4.48156541084 0.0
0.2 4.44880817466 0.0
0.2 4.4190602782 0.0
0.2 4.39204525371 0.0
0.2 4.36751203886 0.0
0.2 4.34523264049 0.0
0.212131543907 4.30926329506 0.0
0.224675715302 4.29385348652 0.0
0.23762369102 4.27878141198 0.0
0.250966423879 4.26405760374 0.0
0.264694484585 4.24969246611 0.0
0.278798324214 4.23569599189 0.0
0.293267939266 4.22207810803 0.0
0.308093289028 4.20884826442 0.0
0.323263842145 4.19601585877 0.0
0.338769084145 4.18358978512 0.0
0.354597997314 4.17157887342 0.0
0.37073960121 4.15999145532 0.0
0.387182441982 4.14883575334 0.0
0.403915091795 4.13811952025 0.0
0.420925712897 4.12785033813 0.0
0.438202430937 4.11803537461 0.0
0.455733079095 4.10868154223 0.0
0.473505374364 4.09979539439 0.0
0.491506842655 4.09138316882 0.0
0.509724826085 4.0834507802 0.0
0.528146580414 4.07600377808 0.0
0.546759103951 4.06904741762 0.0
0.56554943677 4.06258654322 0.0
0.584504260001 4.05662573401 0.0
0.60361041518 4.0511691282 0.0
0.622854334779 4.04622060039 0.0
0.642222678753 4.04178358113 0.0
0.661701681839 4.03786122392 0.0
0.681277836375 4.03445624851 0.0
0.700937245817 4.03157107217 0.0
0.720666255912 4.02920769845 0.0
0.740450894784 4.02736780161 0.0
0.76027736978 4.02605266363 0.0
0.780131702711 4.02526321235 0.0
0.799999999998 4.025 0.0
0.819868297285 4.02526321235 0.0
0.839722630216 4.02605266363 0.0
0.859549105212 4.02736780161 0.0
0.879333744085 4.02920769845 0.0
0.89906275418 4.03157107217 0.0
0.918722163621 4.03445624851 0.0
0.938298318157 4.03786122392 0.0
0.957777321244 4.04178358113 0.0
0.977145665218 4.04622060039 0.0
0.996389584817 4.0511691282 0.0
1.01549574 4.05662573401 0.0
1.03445056323 4.06258654322 0.0
1.05324089605 4.06904741762 0.0
1.07185341958 4.07600377808 0.0
1.09027517391 4.0834507802 0.0
1.10849315734 4.09138316882 0.0
1.12649462563 4.09979539439 0.0
1.1442669209 4.10868154222 0.0
1.16179756906 4.1180353746 0.0
1.1790742871 4.12785033813 0.0
1.1960849082 4.13811952024 0.0
1.21281755802 4.14883575334 0.0
1.22926039879 4.15999145532 0.0
1.24540200269 4.17157887342 0.0
1.26123091585 4.18358978512 0.0
1.27673615785 4.19601585877 0.0
1.29190671097 4.20884826442 0.0
1.30673206073 4.22207810803 0.0
1.32120167579 4.23569599189 0.0
1.33530551541 4.24969246611 0.0
1.34903357612 4.26405760374 0.0
1.36237630898 4.27878141198 0.0
1.3753242847 4.29385348652 0.0
1.38786845609 4.30926329506 0.0
1.05632730172 4.46025283906 0.0
0.549964048968 4.4630053958 0.0
0.806135520676 4.31186690218 0.0
0.603895783049 4.26079310371 0.0
1.22984770884 4.38318704125 0.0
0.3703382852 4.38423552752 0.0
0.995322815839 4.25565031136 0.0
0.728315816804 4.1765935937 0.0
0.872128173905 4.17288724072 0.0
1.14059401893 4.27298468684 0.0
0.461553191009 4.27181671009 0.0
0.784706775856 4.56821390922 0.0
0.398287125272 4.57945970538 0.0
1.20625306554 4.58334743514 0.0
0.624100842742 4.1589824436 0.0
0.5257453845 4.18811776279 0.0
0.978502430793 4.15488737058 0.0
1.07419209812 4.18825154482 0.0
0.364313698077 4.28677035763 0.0
1.23509538257 4.28681716733 0.0
0.68124123937 4.39284548972 0.0
1.31679378691 4.35012066749 0.0
0.283206213094 4.35012066749 0.0
0.791498533126 4.11467141721 0.0
0.931481076052 4.3801344917 0.0
0.966719065571 4.62778042839 0.0
0.684451667517 4.11068036752 0.0
0.618335406951 4.62686910993 0.0
0.450982331762 4.19686171732 0.0
0.915674266355 4.10995633851 0.0
1.14900051594 4.19689012964 0.0
1.30193709687 4.4481448133 0.0
0.298574667609 4.44816296922 0.0
1.05734787542 4.34990107617 0.0
0.539273225177 4.35252599628 0.0
0.709896798149 4.27721026287 0.0
0.895708916005 4.26924194389 0.0
0.813273511364 4.43835766235 0.0
0.559289631452 4.13230879113 0.0
1.04001407307 4.13281539633 0.0
0.801161810585 4.23146244955 0.0
0.665113819616 4.52056650186 0.0
0.852577362173 4.09111846388 0.0
0.390256727869 4.2242806298 0.0
1.20974450479 4.22428104599 0.0
0.921542541183 4.52778058719 0.0
1.14030889032 4.36437344809 0.0
1.15600477272 4.46808538305 0.0
0.435243219029 4.4750581257 0.0
0.462045157798 4.36654654286 0.0
0.735806812738 4.08472269746 0.0
1.30082934537 4.29793772796 0.0
0.299170654625 4.29793772796 0.0
0.533651712118 4.26265983853 0.0
0.666130919144 4.21652131559 0.0
1.0676097303 4.26179469382 0.0
1.08054433577 4.58530946155 0.0
0.506773767255 4.56568295079 0.0
0.626745312844 4.10124420826 0.0
0.933845304214 4.2106954732 0.0
0.293717639664 4.55175000185 0.0
0.312505022079 4.66426411351 0.0
1.3058164124 4.55154930624 0.0
1.29054387065 4.66302765963 0.0
0.973467966326 4.09941619478 0.0
0.487935413164 4.15087084015 0.0
0.461549079751 4.68836834982 0.0
1.11203248746 4.15093503889 0.0
1.14453515393 4.70617370303 0.0
0.840217564202 4.68891146633 0.0
0.585347033288 4.20539048534 0.0
0.619177396637 4.34227576306 0.0
0.331644410315 4.24962190462 0.0
1.26835558968 4.24962190462 0.0
1.01536156978 4.19987473052 0.0
0.809331033562 4.07065709122 0.0
0.982321540791 4.33437358971 0.0
0.725600576914 4.66999651799 0.0
0.812291456186 4.16642942492 0.0
0.335887692543 4.33918235669 0.0
1.26344844681 4.34017131907 0.0
1.23449730504 4.49457441524 0.0
1.34334172095 4.40539551957 0.0
0.256658279045 4.40539551957 0.0
0.741646926828 4.34287908527 0.0
0.674799084703 4.16673768522 0.0
1.18647435526 4.30955189749 0.0
0.360563250283 4.49596479569 0.0
0.873716483853 4.33845499203 0.0
0.418704489949 4.31146264283 0.0
0.492670911224 4.22931614809 0.0
0.403480880356 4.19046776931 0.0
1.19651541215 4.1904686246 0.0
0.728649253738 4.46214546491 0.0
1.00883674467 4.40174664879 0.0
1.11035034557 4.23161841276 0.0
0.261968539765 4.3130079512 0.0
1.33803146023 4.3130079512 0.0
0.74649980488 4.1318354354 0.0
0.927597725248 4.1577597079 0.0
0.892956618256 4.07619338913 0.0
0.659794281787 4.07951387326 0.0
0.587663534405 4.09486537006 0.0
0.942353209926 4.07935300973 0.0
1.01493747319 4.09476013719 0.0
0.613130017774 4.41369803882 0.0
0.449373501074 4.15377191978 0.0
0.514840228377 4.12225850006 0.0
0.497057592 4.41333092106 0.0
1.15061382426 4.15379293084 0.0
1.08514419473 4.12228328152 0.0
0.745617635771 4.23098957592 0.0
0.87523452213 4.59853036549 0.0
0.855262884783 4.2258970831 0.0
1.01126200032 4.53280064162 0.0
1.09391916408 4.40632408872 0.0
1.04436265455 4.71482000827 0.0
0.314320181089 4.38773968607 0.0
1.28649331902 4.38743720145 0.0
0.771211579291 4.06316862024 0.0
0.432259099658 4.24006002157 0.0
0.698583889427 4.07144353526 0.0
1.16802128371 4.238862881 0.0
1.09587629216 4.3086676659 0.0
1.35920470355 4.35666960471 0.0
0.240795296449 4.35666960471 0.0
0.504003580654 4.30815758118 0.0
0.579942709371 4.5342075073 0.0
0.875915224914 4.12815792528 0.0
0.426503136644 4.40717733008 0.0
0.57541416445 4.30365301522 0.0
0.683877978289 4.33161848113 0.0
0.888061695889 4.44633509246 0.0
0.26012287522 4.49859249103 0.0
1.33987712478 4.49859249103 0.0
0.801393572636 4.37060096582 0.0
0.558460082533 4.72496728209 0.0
1.1741923373 4.41132830101 0.0
0.83220012886 4.12779415912 0.0
1.02815069622 4.30053276509 0.0
0.948308583502 4.2880204454 0.0
0.846588933095 4.50834596945 0.0
0.343666800815 4.43485820652 0.0
1.25632767671 4.43480360053 0.0
0.97849585731 4.47031535602 0.0
1.10170977548 4.51507265998 0.0
0.662193131828 4.26809398492 0.0
0.400503668388 4.26881657105 0.0
1.20117145985 4.26130427377 0.0
0.350957892513 4.21796558019 0.0
1.24904210749 4.21796558019 0.0
0.771964652188 4.18905379403 0.0
0.932165148285 4.72736281402 0.0
0.373672364094 4.73321357765 0.0
0.760245937722 4.28409350779 0.0
0.848718469252 4.05767763075 0.0
1.23385612561 4.7358294747 0.0
0.846421485813 4.28065918421 0.0
0.651597058631 4.13043284014 0.0
0.650489852552 4.72138045504 0.0
0.58457834847 4.16375088261 0.0
0.48701309933 4.18859927013 0.0
0.708495738406 4.58856947756 0.0
1.11203398596 4.18878062515 0.0
0.54865558244 4.10250047869 0.0
1.05126102377 4.10234629471 0.0
0.300013757486 4.26259646442 0.0
1.29998624251 4.26259646442 0.0
0.9465032388 4.12718070354 0.0
0.708587583337 4.14146095907 0.0
0.973348904468 4.19537871864 0.0
0.628721855632 4.19538356945 0.0
0.380175010018 4.34021880077 0.0
0.662092932411 4.45899041267 0.0
1.05133526787 4.22221992007 0.0
0.528087045766 4.64327882187 0.0
1.22233124543 4.33521693908 0.0
1.19001193434 4.36273586668 0.0
0.853024099244 4.39544003492 0.0
0.542800296246 4.22324366905 0.0
0.247706318737 4.45239119247 0.0
1.35229368126 4.45239119247 0.0
0.599153768578 4.12953797005 0.0
1.01616570494 4.16227683178 0.0
0.744705786938 4.40569544575 0.0
1.31929001115 4.73702550052 0.0
0.777615355331 4.15113602511 0.0
1.33132411895 4.60631378639 0.0
0.265621610877 4.60975488866 0.0
0.532023338888 4.15374454388 0.0
1.0697792195 4.15241429251 0.0
0.286371037106 4.73010312914 0.0
0.497725885905 4.50153668256 0.0
0.46053455822 4.31587947599 0.0
0.433799237968 4.54629400991 0.0
0.388624781906 4.65094200004 0.0
0.554823673752 4.40451940232 0.0
1.1421595646 4.31818301431 0.0
1.14760043966 4.61655103139 0.0
1.21258698805 4.65320200685 0.0
1.16279096046 4.53292621409 0.0
0.995762647814 4.12508772517 0.0
0.456229040627 4.61456685246 0.0
0.707289391156 4.21520271873 0.0
0.763036833302 4.74285445535 0.0
0.78386198569 4.49787013126 0.0
[...]
POINT_DATA 999
VECTORS Displacement float
0.277298789297 -0.196204288593 0
0.282768107759 -0.196203849163 0
0.28 -0.2 0
0.28 -0.2 0
0.283002093613 -0.196187553427 0
0.283227020837 -0.196166176076 0
0.283428404483 -0.196141424847 0
0.283599348361 -0.196133248575 0
0.283703281143 -0.196151349564 0
0.283768986207 -0.196206313905 0
0.283736911662 -0.196306854567 0
0.283599635563 -0.196462797204 0
0.283341559343 -0.19671579774 0
0.282911010555 -0.197090925591 0
0.282286436561 -0.197654707604 0
0.281384573826 -0.198509743249 0
0.28 -0.2 0
0.28 -0.2 0
0.28 -0.2 0
0.28 -0.2 0
0.28 -0.2 0
0.28 -0.2 0
0.28 -0.2 0
0.28 -0.2 0
0.28 -0.2 0
0.28 -0.2 0
0.28 -0.2 0
0.28 -0.2 0
0.28 -0.2 0
0.28 -0.2 0
0.28 -0.2 0
0.28 -0.2 0
0.28 -0.2 0
0.2786322936 -0.198523762714 0
0.277738685507 -0.197670909067 0
0.277093123805 -0.19710449869 0
0.276683581015 -0.196723593202 0
0.27643449045 -0.196467407147 0
0.2763007631 -0.196309587157 0
0.27627293327 -0.196208964405 0
0.276343262477 -0.196153391255 0
0.276451502039 -0.196134617747 0
0.276626589883 -0.196142237641 0
0.276831936311 -0.196166695814 0
0.277060794158 -0.196187958691 0
0.277495443553 -0.196075127821 0
0.277711721493 -0.195930588423 0
0.27794530617 -0.195762145572 0
0.278200892876 -0.195570264748 0
0.278477339453 -0.195346766634 0
0.278766568542 -0.19508627658 0
0.279073082157 -0.194791623536 0
0.279409507018 -0.194459039919 0
0.279772718549 -0.194058587873 0
0.280143462773 -0.19362210076 0
0.280541677595 -0.193115026733 0
0.280989304789 -0.192525169159 0
0.28146233314 -0.191803674543 0
0.281994696965 -0.190898722074 0
0.282507867385 -0.189789996333 0
0.28292193793 -0.188697087404 0
0.283235184075 -0.187633565661 0
0.283466418586 -0.186577124681 0
0.283622323909 -0.185583574824 0
0.283716137966 -0.184613957268 0
0.283753128314 -0.183699574177 0
0.283726511665 -0.182807043055 0
0.283648478734 -0.181990825844 0
0.283508180556 -0.18124893187 0
0.28333523901 -0.180564602954 0
0.283115304612 -0.179935501207 0
0.282869445944 -0.179370012658 0
0.28258772058 -0.178867754021 0
0.282288861836 -0.17843177043 0
0.281957743855 -0.178050953242 0
0.281611078304 -0.177741070035 0
0.281240245896 -0.177490191354 0
0.280863053989 -0.177299994516 0
0.280472636031 -0.177172799205 0
0.280043711252 -0.177053711237 0
0.279607430122 -0.177147066344 0
0.279202833111 -0.177293274567 0
0.278820373908 -0.177484242649 0
0.27845373952 -0.177736592203 0
0.278103819829 -0.178048705188 0
0.277770318682 -0.178427250349 0
0.277459778198 -0.178874292993 0
0.277186954492 -0.17937334034 0
0.276941868268 -0.179940659057 0
0.276723928915 -0.180575865417 0
0.276551927409 -0.18126219467 0
0.276417068966 -0.182011121732 0
0.276325733289 -0.18279603448 0
0.27629774671 -0.183694645679 0
0.276337970618 -0.18462092755 0
0.276430837801 -0.185589013671 0
0.276587944689 -0.186586814142 0
0.276814942712 -0.187638547598 0
0.277130159025 -0.18871209346 0
0.277534372762 -0.189799092067 0
0.278026607016 -0.190903128395 0
0.278682298991 -0.191996396144 0
0.279175620858 -0.192695941079 0
0.27959555607 -0.193206942618 0
0.279978731249 -0.193685437679 0
0.280339382792 -0.194106050574 0
0.280693666037 -0.194494807693 0
0.281023531464 -0.194819636597 0
0.28132457295 -0.195107886906 0
0.281609014206 -0.19536307561 0
0.281880874517 -0.19558210892 0
0.282132296822 -0.195770231038 0
0.282362057765 -0.195935400756 0
0.282574756528 -0.196077135391 0
0.282427738155 -0.192474913543 0
0.277681205064 -0.192445774106 0
0.280077003244 -0.185903675383 0
0.279051340525 -0.186200826852 0
0.283194767405 -0.193978036283 0
0.276865043178 -0.193959060511 0
0.280964542428 -0.186041746154 0
0.280142801006 -0.181829196738 0
0.279896001483 -0.181720828624 0
0.281889285671 -0.190309889371 0
0.278223177276 -0.190188443513 0
0.279886847491 -0.193768031024 0
0.277174461831 -0.196285882117 0
0.282847186288 -0.196385713255 0
0.280607192945 -0.182849290072 0
0.280063662563 -0.186309346939 0
0.279372886213 -0.182801065699 0
0.28001714364 -0.186318444262 0
0.277818154922 -0.193217487132 0
0.282262169419 -0.193245815721 0
0.278889618672 -0.18903845759 0
0.283052046592 -0.19518757296 0
0.277011084021 -0.195170595951 0
0.280101563871 -0.179636353308 0
0.281265951871 -0.18878094112 0
0.28125606361 -0.195757396368 0
0.281048287093 -0.180394191286 0
0.278664626981 -0.19579830643 0
0.27972430715 -0.18928052343 0
0.279004565391 -0.180372253347 0
0.280374286551 -0.18931277954 0
0.283588746796 -0.195542683207 0
0.27646180244 -0.195527330913 0
0.282172159188 -0.189851765242 0
0.277859972929 -0.18996400628 0
0.279500802217 -0.185170022407 0
0.280554363525 -0.184974228662 0
0.280163918585 -0.189942831385 0
0.281505471431 -0.18384343001 0
0.278575040107 -0.183835023944 0
0.280035861695 -0.183281444144 0
0.278728212667 -0.192833137121 0
0.279446893409 -0.17913576058 0
0.278986888275 -0.191994736591 0
0.281117637595 -0.192071054288 0
0.281185113167 -0.192955960213 0
0.282759210659 -0.191917834106 0
0.283060456189 -0.194014492124 0
0.276941252896 -0.19423219128 0
0.277312735544 -0.191875467845 0
0.280800015375 -0.179055547319 0
0.282425329793 -0.194768140305 0
0.27764807532 -0.194742370325 0
0.278671662805 -0.187898324954 0
0.27977321996 -0.183790925063 0
0.281401935065 -0.187925125673 0
0.282204105509 -0.195486389993 0
0.277654685567 -0.195173377475 0
0.281769391084 -0.181215171554 0
0.28023425273 -0.183615037016 0
0.276625583021 -0.196478856446 0
0.27764039841 -0.197794163508 0
0.283411736479 -0.196482214045 0
0.282408561446 -0.197780743792 0
0.278256377735 -0.18117914833 0
0.28120190118 -0.186867062596 0
0.278355729899 -0.19776557666 0
0.27886811157 -0.18687653657 0
0.281505632794 -0.198103241357 0
0.280252382793 -0.196948477225 0
0.27977300366 -0.18504751056 0
0.278512913513 -0.188279107172 0
0.278470914417 -0.193895548247 0
0.281615757831 -0.193941106164 0
0.280198892829 -0.184918819899 0
0.279903643348 -0.1783499757 0
0.281522479273 -0.1880895632 0
0.279529221302 -0.196523955457 0
0.2799993919 -0.181224884961 0
0.277147554855 -0.194215691369 0
0.282928161138 -0.194238230487 0
0.283377110967 -0.195359512154 0
0.283491015434 -0.195698377129 0
0.27656279986 -0.195690450868 0
0.279531560147 -0.187053310494 0
0.280349942416 -0.182157145468 0
0.282490863194 -0.19217700394 0
0.276643961238 -0.195409793667 0
0.280652991429 -0.187003706384 0
0.277582692476 -0.192028898733 0
0.279057383535 -0.188352275634 0
0.279877098026 -0.191230509214 0
0.280248594949 -0.191314236105 0
0.279308664471 -0.190822048717 0
0.281996063519 -0.190349804549 0
0.281084823189 -0.188526256788 0
0.277442036474 -0.195406760279 0
0.28262736419 -0.195420699502 0
0.280368142363 -0.180332305866 0
0.27959550379 -0.181925775133 0
0.278806667644 -0.179125042833 0
0.281830163722 -0.179956067845 0
0.282345684128 -0.182050676039 0
0.278204028555 -0.179997305926 0
0.277682161062 -0.182134953668 0
0.278234240865 -0.190373594578 0
0.281166399874 -0.188639816609 0
0.282123390718 -0.185180703554 0
0.277336460023 -0.192123804642 0
0.278904370197 -0.188653505041 0
0.277937517842 -0.185185706775 0
0.279871782358 -0.18342619237 0
0.280651619963 -0.194686526438 0
0.280176369066 -0.183268843794 0
0.281932347473 -0.19373719325 0
0.282648297869 -0.19183796106 0
0.281110338267 -0.197960334513 0
0.27673358261 -0.194905815357 0
0.283324423457 -0.19493438377 0
0.28045473887 -0.178212451042 0
0.278683252031 -0.190649969296 0
0.281436439149 -0.179112636336 0
0.281392775478 -0.190692231317 0
0.282104208614 -0.189767019914 0
0.283128925472 -0.195747164568 0
0.276932093622 -0.195739760064 0
0.277979623307 -0.189736168679 0
0.278051778394 -0.193839800277 0
0.279524315524 -0.180402909396 0
0.276963139192 -0.193257609087 0
0.278456138438 -0.187973820232 0
0.279083044248 -0.187137083427 0
0.280917763792 -0.190429199475 0
0.276370520555 -0.196144161083 0
0.283668192794 -0.196148969005 0
0.280043996432 -0.187800406321 0
0.279003483952 -0.198143072272 0
0.283108375498 -0.193362397792 0
0.279814752205 -0.180086162171 0
0.281614401966 -0.187976265003 0
0.280984151353 -0.186197364307 0
0.280489169126 -0.19210356201 0
0.27659666363 -0.194898816066 0
0.283456223896 -0.194915163805 0
0.28176984097 -0.191830041065 0
0.282639757809 -0.194227991688 0
0.279289901822 -0.185431255903 0
0.278123862913 -0.192038081231 0
0.281841320421 -0.192073658842 0
0.279163713229 -0.193280367839 0
0.280935545278 -0.193347342481 0
0.280043645031 -0.181970277457 0
0.280588785291 -0.197971906247 0
0.278669370274 -0.198710933758 0
0.279785833506 -0.185075304944 0
0.279272905829 -0.178182177087 0
0.28131413263 -0.198759621534 0
0.280311711395 -0.184992096163 0
0.280988746563 -0.181493758995 0
0.279325774488 -0.197871772666 0
0.280607813556 -0.183928752972 0
0.280006794865 -0.187696633696 0
0.279240751334 -0.19447057581 0
0.28007804756 -0.187675860492 0
0.282528117894 -0.183482101655 0
0.277523490925 -0.183476529354 0
0.27823069533 -0.194664062161 0
0.281851557553 -0.194693323985 0
0.279028360821 -0.18137476571 0
0.280510220304 -0.18096745937 0
0.280079346215 -0.183846647991 0
0.279992201245 -0.183802284312 0
0.277208255919 -0.193301449485 0
0.278658022066 -0.191142198247 0
0.28069848083 -0.186470769997 0
0.278238805464 -0.196615120051 0
0.282823631315 -0.193339751811 0
0.282954532453 -0.192955355107 0
0.280545290251 -0.188701357091 0
0.279344588362 -0.186657373193 0
0.276366501753 -0.195948927646 0
0.28367995321 -0.195952989225 0
0.281339913807 -0.182633849088 0
0.27942433516 -0.183908087588 0
0.279485387339 -0.189026960799 0
0.281447455634 -0.198742405711 0
0.280122766987 -0.180767638591 0
0.283116263608 -0.197053802575 0
0.276928724559 -0.197089215326 0
0.280992693414 -0.18526361716 0
0.279029008376 -0.185299902377 0
0.278482081672 -0.198663968813 0
0.2773639035 -0.193943010538 0
0.27769058138 -0.191000659942 0
0.27714672062 -0.195464587982 0
0.277736241129 -0.197441899024 0
0.277770354644 -0.190964005172 0
0.282424993386 -0.19114395679 0
0.282349199414 -0.196558157519 0
0.28226865358 -0.197484206973 0
0.282935280896 -0.195212650151 0
0.278650523912 -0.182384816951 0
0.277686379171 -0.196490506287 0
0.279867701412 -0.183233923652 0
0.279859563622 -0.19822567359 0
0.279865584259 -0.191750601647 0
0.281061464313 -0.187293528786 0
0.280849484745 -0.190203458099 0
0.280162462763 -0.183083689974 0
0.279250480021 -0.190238446921 0
0.283544810806 -0.195846805499 0
0.281044174195 -0.17841568302 0
0.277856746587 -0.194074725867 0
0.282221275369 -0.194111860067 0
0.279778917206 -0.192478312371 0
0.280338561267 -0.19258142964 0
0.278169524083 -0.192117348404 0
0.277071756067 -0.192984335835 0
0.280394368595 -0.179109812938 0
0.27920593448 -0.193020456386 0
0.27839553057 -0.192984659518 0
0.281694658656 -0.19303988239 0
0.276506297694 -0.195790962297 0
0.283312253282 -0.194478311161 0
0.280660116276 -0.184999566022 0
0.277862207878 -0.195214637468 0
0.282214013615 -0.195232751954 0
0.281637357095 -0.197060169249 0
0.276753371714 -0.194448097179 0
0.277210098948 -0.19578186694 0
0.282855454843 -0.195788900797 0
0.282368335072 -0.180753109367 0
0.280044205583 -0.18229556182 0
0.2829305221 -0.196940379223 0
0.277087781519 -0.196932262232 0
0.278477383931 -0.188974361149 0
0.280826063377 -0.179926928203 0
0.280046576377 -0.184293139871 0
0.2798108266 -0.179199450917 0
0.282485187591 -0.190860479587 0
0.281629238141 -0.189056432545 0
0.278855209164 -0.186871908718 0
0.278306594877 -0.179093551294 0
0.277732034812 -0.180796892692 0
0.28280162365 -0.193314123523 0
0.277193570316 -0.194767447213 0
0.2828737313 -0.194789543132 0
0.281297151398 -0.194262438507 0
0.277578190391 -0.190861946808 0
0.279000125192 -0.186606970931 0
0.279664714524 -0.184971643977 0
0.278619621671 -0.194226001629 0
0.279881290838 -0.195872656292 0
0.282027288193 -0.186936706895 0
0.278033526916 -0.186944907031 0
0.27891030015 -0.189499109426 0
0.281100671541 -0.189493559958 0
0.276468569807 -0.196468782589 0
0.283567314825 -0.196469747693 0
0.279393856316 -0.185163974526 0
0.281116772995 -0.1867739145 0
0.280246300017 -0.185231668769 0
0.281735568965 -0.195444363031 0
0.27889008134 -0.178436888871 0
0.281409230364 -0.190495800263 0
0.283359379233 -0.195882153979 0
0.276697300604 -0.195877516362 0
0.279461343071 -0.190522735497 0
0.279211051543 -0.179674052737 0
0.280650197002 -0.190577566155 0
0.279597917921 -0.184313196709 0
0.280724217334 -0.196369019514 0
0.280863155383 -0.198858161574 0
0.282329485882 -0.190954888277 0
0.278104712591 -0.189495160693 0
0.283349698072 -0.195316278773 0
0.276708016439 -0.195302469371 0
0.283228349767 -0.196153537431 0
0.276795391276 -0.196106331722 0
0.279449755507 -0.181038586899 0
0.28213186828 -0.191385320081 0
0.281952598876 -0.179147909306 0
0.280133170426 -0.177759456407 0
0.279878681741 -0.181051971921 0
0.277075197205 -0.193216154461 0
0.277964634846 -0.191495466072 0
0.278995643412 -0.193951310833 0
0.281098879707 -0.193999518746 0
0.280328490858 -0.187184459193 0
0.280401027567 -0.184048611078 0
0.27960572694 -0.177939919702 0
0.282420129537 -0.197829889749 0
0.277417870729 -0.193861808377 0
0.282638028694 -0.19389790124 0
0.281817648072 -0.189046577743 0
0.277410471346 -0.197640463341 0
0.279195991906 -0.198927690942 0
0.282901004085 -0.192513118807 0
0.278127728112 -0.195580767029 0
0.280324202799 -0.182803599586 0
0.28161720354 -0.189069880266 0
0.281794222548 -0.188668811707 0
0.280466956412 -0.18490257711 0
0.281305333284 -0.187027657858 0
0.278553661179 -0.189120914181 0
0.276883180798 -0.195177746862 0
0.281455914483 -0.180756332684 0
0.281202846586 -0.182097106268 0
0.276950609445 -0.194751489316 0
0.283111706637 -0.194787898347 0
0.278670343835 -0.194439834301 0
0.281418551194 -0.194475145649 0
0.279885768568 -0.182194439648 0
0.282364218849 -0.192671560392 0
0.282336934271 -0.1936871187 0
0.279759365191 -0.182833203961 0
0.278257892554 -0.188709248476 0
0.279558048222 -0.185788664938 0
0.277488612487 -0.192870229978 0
0.277158515304 -0.19549392443 0
0.282906383875 -0.195505958863 0
0.280255455704 -0.198418680182 0
0.280635814593 -0.18632410563 0
0.280601349797 -0.187934679747 0
0.277172733426 -0.192467805257 0
0.280559342892 -0.185746607213 0
0.278566890394 -0.180735781782 0
0.277351997908 -0.192909357332 0
0.280664041993 -0.187188922903 0
0.280891279077 -0.199064421822 0
0.282916693776 -0.18260509986 0
0.279487481159 -0.187956857688 0
0.279178580434 -0.196181641353 0
0.280198195853 -0.181044808719 0
0.279527424986 -0.186456579777 0
0.279906355161 -0.184056317475 0
0.282871223131 -0.184209730189 0
0.277096418366 -0.182609049568 0
0.279466202985 -0.187163283974 0
0.277185488221 -0.184209221526 0
0.280015274931 -0.180393680699 0
0.280171666849 -0.183994145296 0
0.280195818247 -0.178668100577 0
0.283603049253 -0.195938232298 0
0.276447457336 -0.195934561459 0
0.282814320616 -0.181146664923 0
0.282469262048 -0.180021991563 0
0.279722905277 -0.198786398885 0
0.277607995742 -0.180023195005 0
0.277250721929 -0.181191153731 0
0.282692515031 -0.186056159266 0
0.28219465562 -0.187897334257 0
0.280109420662 -0.182391173742 0
0.277364879576 -0.186063477741 0
0.277862327726 -0.187906922671 0
0.283221286636 -0.19484359213 0
0.281462268347 -0.196602231768 0
0.279856397459 -0.186890680458 0
0.280863820099 -0.17790625077 0
0.278687120285 -0.179671837531 0
0.28147638772 -0.178359316619 0
0.280711338049 -0.181232129795 0
0.283019121221 -0.193863716983 0
0.283345994389 -0.195611407894 0
0.27671125736 -0.195601923659 0
0.277694994452 -0.193603086082 0
0.283494290886 -0.195305636601 0
0.27655934185 -0.195291817703 0
0.280370465342 -0.193593913294 0
0.279364355671 -0.185588275804 0
0.280529472003 -0.198765682192 0
0.279579818815 -0.178681763405 0
0.280832057591 -0.18838679339 0
0.28055753814 -0.19171973197 0
0.279589139281 -0.191853730855 0
0.276881345305 -0.194375599614 0
0.280835211791 -0.186126510226 0
0.278369040761 -0.182952232172 0
0.280256279713 -0.183777360149 0
0.282565632889 -0.195634630319 0
0.279993632601 -0.182492057614 0
0.279222728366 -0.186031428594 0
0.281442291768 -0.179778827687 0
0.280034151178 -0.182131962646 0
0.27678258823 -0.194040926608 0
0.279106260122 -0.189753902414 0
0.279622418782 -0.179983908586 0
0.279710494069 -0.190215420028 0
0.279164693034 -0.187880718802 0
0.281932754445 -0.184275118045 0
0.280156612339 -0.190098939836 0
0.279952497253 -0.190142675242 0
0.278131043465 -0.184277775153 0
0.280317386305 -0.186073549806 0
0.280527393107 -0.17958947179 0
0.282013772021 -0.183071638051 0
0.283535301075 -0.195400318747 0
0.276515912788 -0.19535978438 0
0.279198950902 -0.199139153867 0
0.279756457727 -0.183782158727 0
0.28327070073 -0.194041345877 0
0.280284052134 -0.179748340835 0
0.278436122482 -0.178580361062 0
0.277262131192 -0.195139443963 0
0.282804555884 -0.195157439078 0
0.277644442316 -0.195645052711 0
0.282428176979 -0.195655047444 0
0.279191841762 -0.17909454104 0
0.277297269053 -0.192279162682 0
0.28175539502 -0.18196469448 0
0.283150066715 -0.195791036695 0
0.28071207078 -0.185904118433 0
0.278767622251 -0.181688599739 0
0.283180608018 -0.194402860313 0
0.277065015951 -0.195938679689 0
0.282998064967 -0.195942699647 0
0.280769670082 -0.193183969914 0
0.282068019478 -0.191563792896 0
0.281374627727 -0.185798812809 0
0.27749709564 -0.194350455716 0
0.282575141998 -0.194380149595 0
0.278569769451 -0.191572052626 0
0.279982956609 -0.182859789425 0
0.281487104547 -0.191657002176 0
0.280704934616 -0.185190981598 0
0.28070778587 -0.178524397624 0
0.277580106226 -0.191067397265 0
0.278700048788 -0.185834386754 0
0.279367590441 -0.191353107467 0
0.280746756713 -0.191427920756 0
0.281644904941 -0.193098239527 0
0.278624648681 -0.189339080822 0
0.279126975707 -0.199245858398 0
0.278256053719 -0.195050497464 0
0.281826419537 -0.195072395056 0
0.281004618559 -0.179362581753 0
0.281498212509 -0.189490811764 0
0.278563110826 -0.189505915981 0
0.27971886311 -0.184482416961 0
0.280072901054 -0.182919601 0
0.279369143412 -0.19858806285 0
0.279459333547 -0.188675219552 0
0.278961547827 -0.191718008804 0
0.282719243554 -0.192091696147 0
0.280527114538 -0.190830234623 0
0.28063732783 -0.188757911227 0
0.280349276669 -0.184361700691 0
0.283598492683 -0.195692694824 0
0.276451853316 -0.195684356252 0
0.278921223404 -0.187844630653 0
0.278113069081 -0.193565831201 0
0.281967376183 -0.193602423432 0
0.282059455243 -0.190043667185 0
0.278691024232 -0.193379952359 0
0.281382966827 -0.193422817486 0
0.276322445192 -0.196104241927 0
0.283720498189 -0.196106659098 0
0.27878718485 -0.186959725622 0
0.280975127342 -0.19721556555 0
0.283028333058 -0.193317377243 0
0.280894452414 -0.191840460788 0
0.281487428716 -0.189452836784 0
0.280065544653 -0.182522120643 0
0.279747613481 -0.185639886753 0
0.277878833266 -0.179338716237 0
0.282080308089 -0.192700224806 0
0.283349831947 -0.194531925247 0
0.276706079406 -0.194513780152 0
0.277771404261 -0.192234859085 0
0.278028022338 -0.190002863551 0
0.280392378713 -0.18429714492 0
0.278659378183 -0.190160706015 0
0.279701723889 -0.181340857882 0
0.281629658886 -0.189922224209 0
0.281042724882 -0.189488451977 0
0.279665495158 -0.194724787389 0
0.281193249493 -0.187999671856 0
0.28197220216 -0.180524941083 0
0.281896652787 -0.188956481295 0
0.282956495642 -0.192723144523 0
0.280330927794 -0.195700106099 0
0.278329960144 -0.188525087523 0
0.27968977418 -0.187961402265 0
0.27894591075 -0.197356948445 0
0.278322793848 -0.193120995598 0
0.278627495199 -0.18763242933 0
0.279734907379 -0.183930015561 0
0.278748710855 -0.188099960213 0
0.277913610401 -0.191481038179 0
0.278085421461 -0.180522023872 0
0.277905653828 -0.181512500848 0
0.27686747822 -0.195983695582 0
0.283192239936 -0.195986593612 0
0.283671565925 -0.19591173696 0
0.276373022602 -0.195906908312 0
0.280440956473 -0.177684704826 0
0.280334773988 -0.181008970378 0
0.281412209623 -0.187635941355 0
0.279918510697 -0.182772037395 0
0.282086422309 -0.194618037881 0
0.278578306467 -0.19771438999 0
0.283129597638 -0.193497035623 0
0.28028550842 -0.183689368336 0
0.280144046248 -0.185802623097 0
0.281223744964 -0.187232447487 0
0.278532767682 -0.190154130038 0
0.279208518804 -0.181103093441 0