# vtk DataFile Version 2.0
Generated with Solid Solver
ASCII
DATASET UNSTRUCTURED_GRID
POINTS 999 float 
0.2 4.325 0.0
1.4 4.325 0.0
1.4 4.825 0.0
0.2 4.825 0.0
1.4 4.34523264049 0.0
1.4 4.36751203886 0.0
1.4 4.39204525371 0.0
1.4 4.4190602782 0.0
1.4 4.44880817466 0.0
1.4 4.48156541084 0.0
1.4 4.51763640748 0.0
1.4 4.5573564007 0.0
1.4 4.60109451608 0.0
1.4 4.64925723872 0.0
1.4 4.70229217343 0.0
1.4 4.76069218095 0.0
1.33333333333 4.825 0.0
1.26666666667 4.825 0.0
1.2 4.825 0.0
1.13333333333 4.825 0.0
1.06666666667 4.825 0.0
1.0 4.825 0.0
0.933333333334 4.825 0.0
0.866666666668 4.825 0.0
0.800000000001 4.825 0.0
0.733333333334 4.825 0.0
0.666666666668 4.825 0.0
0.600000000001 4.825 0.0
0.533333333334 4.825 0.0
0.466666666667 4.825 0.0
0.4 4.825 0.0
0.333333333334 4.825 0.0
0.266666666667 4.825 0.0
0.2 4.76069218095 0.0
0.2 4.70229217343 0.0
0.2 4.64925723872 0.0
0.2 4.60109451608 0.0
0.2 4.5573564007 0.0
0.2 4.51763640748 0.0
0.2 4.48156541084 0.0
0.2 4.44880817466 0.0
0.2 4.4190602782 0.0
0.2 4.39204525371 0.0
0.2 4.36751203886 0.0
0.2 4.34523264049 0.0
0.212131543907 4.30926329506 0.0
0.224675715302 4.29385348652 0.0
0.23762369102 4.27878141198 0.0
0.250966423879 4.26405760374 0.0
0.264694484585 4.24969246611 0.0
0.278798324214 4.23569599189 0.0
0.293267939266 4.22207810803 0.0
0.308093289028 4.20884826442 0.0
0.323263842145 4.19601585877 0.0
0.338769084145 4.18358978512 0.0
0.354597997314 4.17157887342 0.0
0.37073960121 4.15999145532 0.0
0.387182441982 4.14883575334 0.0
0.403915091795 4.13811952025 0.0
0.420925712897 4.12785033813 0.0
0.438202430937 4.11803537461 0.0
0.455733079095 4.10868154223 0.0
0.473505374364 4.09979539439 0.0
0.491506842655 4.09138316882 0.0
0.509724826085 4.0834507802 0.0
0.528146580414 4.07600377808 0.0
0.546759103951 4.06904741762 0.0
0.56554943677 4.06258654322 0.0
0.584504260001 4.05662573401 0.0
0.60361041518 4.0511691282 0.0
0.622854334779 4.04622060039 0.0
0.642222678753 4.04178358113 0.0
0.661701681839 4.03786122392 0.0
0.681277836375 4.03445624851 0.0
0.700937245817 4.03157107217 0.0
0.720666255912 4.02920769845 0.0
0.740450894784 4.02736780161 0.0
0.76027736978 4.02605266363 0.0
0.780131702711 4.02526321235 0.0
0.799999999998 4.025 0.0
0.819868297285 4.02526321235 0.0
0.839722630216 4.02605266363 0.0
0.859549105212 4.02736780161 0.0
0.879333744085 4.02920769845 0.0
0.89906275418 4.03157107217 0.0
0.918722163621 4.03445624851 0.0
0.938298318157 4.03786122392 0.0
0.957777321244 4.04178358113 0.0
0.977145665218 4.04622060039 0.0
0.996389584817 4.0511691282 0.0
1.01549574 4.05662573401 0.0
1.03445056323 4.06258654322 0.0
1.05324089605 4.06904741762 0.0
1.07185341958 4.07600377808 0.0
1.09027517391 4.0834507802 0.0
1.10849315734 4.09138316882 0.0
1.12649462563 4.09979539439 0.0
1.1442669209 4.10868154222 0.0
1.16179756906 4.1180353746 0.0
1.1790742871 4.12785033813 0.0
1.1960849082 4.13811952024 0.0
1.21281755802 4.14883575334 0.0
1.22926039879 4.15999145532 0.0
1.24540200269 4.17157887342 0.0
1.26123091585 4.18358978512 0.0
1.27673615785 4.19601585877 0.0
1.29190671097 4.20884826442 0.0
1.30673206073 4.22207810803 0.0
1.32120167579 4.23569599189 0.0
1.33530551541 4.24969246611 0.0
1.34903357612 4.26405760374 0.0
1.36237630898 4.27878141198 0.0
1.3753242847 4.29385348652 0.0
1.38786845609 4.30926329506 0.0
1.05632730172 4.46025283906 0.0
0.549964048968 4.4630053958 0.0
0.806135520676 4.31186690218 0.0
0.603895783049 4.26079310371 0.0
1.22984770884 4.38318704125 0.0
0.3703382852 4.38423552752 0.0
0.995322815839 4.25565031136 0.0
0.728315816804 4.1765935937 0.0
0.872128173905 4.17288724072 0.0
1.14059401893 4.27298468684 0.0
0.461553191009 4.27181671009 0.0
0.784706775856 4.56821390922 0.0
0.398287125272 4.57945970538 0.0
1.20625306554 4.58334743514 0.0
0.624100842742 4.1589824436 0.0
0.5257453845 4.18811776279 0.0
0.978502430793 4.15488737058 0.0
1.07419209812 4.18825154482 0.0
0.364313698077 4.28677035763 0.0
1.23509538257 4.28681716733 0.0
0.68124123937 4.39284548972 0.0
1.31679378691 4.35012066749 0.0
0.283206213094 4.35012066749 0.0
0.791498533126 4.11467141721 0.0
0.931481076052 4.3801344917 0.0
0.966719065571 4.62778042839 0.0
0.684451667517 4.11068036752 0.0
0.618335406951 4.62686910993 0.0
0.450982331762 4.19686171732 0.0
0.915674266355 4.10995633851 0.0
1.14900051594 4.19689012964 0.0
1.30193709687 4.4481448133 0.0
0.298574667609 4.44816296922 0.0
1.05734787542 4.34990107617 0.0
0.539273225177 4.35252599628 0.0
0.709896798149 4.27721026287 0.0
0.895708916005 4.26924194389 0.0
0.813273511364 4.43835766235 0.0
0.559289631452 4.13230879113 0.0
1.04001407307 4.13281539633 0.0
0.801161810585 4.23146244955 0.0
0.665113819616 4.52056650186 0.0
0.852577362173 4.09111846388 0.0
0.390256727869 4.2242806298 0.0
1.20974450479 4.22428104599 0.0
0.921542541183 4.52778058719 0.0
1.14030889032 4.36437344809 0.0
1.15600477272 4.46808538305 0.0
0.435243219029 4.4750581257 0.0
0.462045157798 4.36654654286 0.0
0.735806812738 4.08472269746 0.0
1.30082934537 4.29793772796 0.0
0.299170654625 4.29793772796 0.0
0.533651712118 4.26265983853 0.0
0.666130919144 4.21652131559 0.0
1.0676097303 4.26179469382 0.0
1.08054433577 4.58530946155 0.0
0.506773767255 4.56568295079 0.0
0.626745312844 4.10124420826 0.0
0.933845304214 4.2106954732 0.0
0.293717639664 4.55175000185 0.0
0.312505022079 4.66426411351 0.0
1.3058164124 4.55154930624 0.0
1.29054387065 4.66302765963 0.0
0.973467966326 4.09941619478 0.0
0.487935413164 4.15087084015 0.0
0.461549079751 4.68836834982 0.0
1.11203248746 4.15093503889 0.0
1.14453515393 4.70617370303 0.0
0.840217564202 4.68891146633 0.0
0.585347033288 4.20539048534 0.0
0.619177396637 4.34227576306 0.0
0.331644410315 4.24962190462 0.0
1.26835558968 4.24962190462 0.0
1.01536156978 4.19987473052 0.0
0.809331033562 4.07065709122 0.0
0.982321540791 4.33437358971 0.0
0.725600576914 4.66999651799 0.0
0.812291456186 4.16642942492 0.0
0.335887692543 4.33918235669 0.0
1.26344844681 4.34017131907 0.0
1.23449730504 4.49457441524 0.0
1.34334172095 4.40539551957 0.0
0.256658279045 4.40539551957 0.0
0.741646926828 4.34287908527 0.0
0.674799084703 4.16673768522 0.0
1.18647435526 4.30955189749 0.0
0.360563250283 4.49596479569 0.0
0.873716483853 4.33845499203 0.0
0.418704489949 4.31146264283 0.0
0.492670911224 4.22931614809 0.0
0.403480880356 4.19046776931 0.0
1.19651541215 4.1904686246 0.0
0.728649253738 4.46214546491 0.0
1.00883674467 4.40174664879 0.0
1.11035034557 4.23161841276 0.0
0.261968539765 4.3130079512 0.0
1.33803146023 4.3130079512 0.0
0.74649980488 4.1318354354 0.0
0.927597725248 4.1577597079 0.0
0.892956618256 4.07619338913 0.0
0.659794281787 4.07951387326 0.0
0.587663534405 4.09486537006 0.0
0.942353209926 4.07935300973 0.0
1.01493747319 4.09476013719 0.0
0.613130017774 4.41369803882 0.0
0.449373501074 4.15377191978 0.0
0.514840228377 4.12225850006 0.0
0.497057592 4.41333092106 0.0
1.15061382426 4.15379293084 0.0
1.08514419473 4.12228328152 0.0
0.745617635771 4.23098957592 0.0
0.87523452213 4.59853036549 0.0
0.855262884783 4.2258970831 0.0
1.01126200032 4.53280064162 0.0
1.09391916408 4.40632408872 0.0
1.04436265455 4.71482000827 0.0
0.314320181089 4.38773968607 0.0
1.28649331902 4.38743720145 0.0
0.771211579291 4.06316862024 0.0
0.432259099658 4.24006002157 0.0
0.698583889427 4.07144353526 0.0
1.16802128371 4.238862881 0.0
1.09587629216 4.3086676659 0.0
1.35920470355 4.35666960471 0.0
0.240795296449 4.35666960471 0.0
0.504003580654 4.30815758118 0.0
0.579942709371 4.5342075073 0.0
0.875915224914 4.12815792528 0.0
0.426503136644 4.40717733008 0.0
0.57541416445 4.30365301522 0.0
0.683877978289 4.33161848113 0.0
0.888061695889 4.44633509246 0.0
0.26012287522 4.49859249103 0.0
1.33987712478 4.49859249103 0.0
0.801393572636 4.37060096582 0.0
0.558460082533 4.72496728209 0.0
1.1741923373 4.41132830101 0.0
0.83220012886 4.12779415912 0.0
1.02815069622 4.30053276509 0.0
0.948308583502 4.2880204454 0.0
0.846588933095 4.50834596945 0.0
0.343666800815 4.43485820652 0.0
1.25632767671 4.43480360053 0.0
0.97849585731 4.47031535602 0.0
1.10170977548 4.51507265998 0.0
0.662193131828 4.26809398492 0.0
0.400503668388 4.26881657105 0.0
1.20117145985 4.26130427377 0.0
0.350957892513 4.21796558019 0.0
1.24904210749 4.21796558019 0.0
0.771964652188 4.18905379403 0.0
0.932165148285 4.72736281402 0.0
0.373672364094 4.73321357765 0.0
0.760245937722 4.28409350779 0.0
0.848718469252 4.05767763075 0.0
1.23385612561 4.7358294747 0.0
0.846421485813 4.28065918421 0.0
0.651597058631 4.13043284014 0.0
0.650489852552 4.72138045504 0.0
0.58457834847 4.16375088261 0.0
0.48701309933 4.18859927013 0.0
0.708495738406 4.58856947756 0.0
1.11203398596 4.18878062515 0.0
0.54865558244 4.10250047869 0.0
1.05126102377 4.10234629471 0.0
0.300013757486 4.26259646442 0.0
1.29998624251 4.26259646442 0.0
0.9465032388 4.12718070354 0.0
0.708587583337 4.14146095907 0.0
0.973348904468 4.19537871864 0.0
0.628721855632 4.19538356945 0.0
0.380175010018 4.34021880077 0.0
0.662092932411 4.45899041267 0.0
1.05133526787 4.22221992007 0.0
0.528087045766 4.64327882187 0.0
1.22233124543 4.33521693908 0.0
1.19001193434 4.36273586668 0.0
0.853024099244 4.39544003492 0.0
0.542800296246 4.22324366905 0.0
0.247706318737 4.45239119247 0.0
1.35229368126 4.45239119247 0.0
0.599153768578 4.12953797005 0.0
1.01616570494 4.16227683178 0.0
0.744705786938 4.40569544575 0.0
1.31929001115 4.73702550052 0.0
0.777615355331 4.15113602511 0.0
1.33132411895 4.60631378639 0.0
0.265621610877 4.60975488866 0.0
0.532023338888 4.15374454388 0.0
1.0697792195 4.15241429251 0.0
0.286371037106 4.73010312914 0.0
0.497725885905 4.50153668256 0.0
0.46053455822 4.31587947599 0.0
0.433799237968 4.54629400991 0.0
0.388624781906 4.65094200004 0.0
0.554823673752 4.40451940232 0.0
1.1421595646 4.31818301431 0.0
1.14760043966 4.61655103139 0.0
1.21258698805 4.65320200685 0.0
1.16279096046 4.53292621409 0.0
0.995762647814 4.12508772517 0.0
0.456229040627 4.61456685246 0.0
0.707289391156 4.21520271873 0.0
0.763036833302 4.74285445535 0.0
0.78386198569 4.49787013126 0.0
[...]
POINT_DATA 999
VECTORS Displacement float
0.3172755087 -0.19619363854 0
0.322727318022 -0.196195271067 0
0.32 -0.2 0
0.32 -0.2 0
0.322964686391 -0.196178918903 0
0.323192841914 -0.196157602613 0
0.323397340754 -0.196133057662 0
0.323571363795 -0.196125399584 0
0.323678227292 -0.196144311913 0
0.323747004195 -0.196200346743 0
0.323718020849 -0.196302172074 0
0.323583984536 -0.196459488706 0
0.323329272008 -0.196713903365 0
0.322902178029 -0.197090294654 0
0.322281015524 -0.197655097687 0
0.321382315606 -0.198510342044 0
0.32 -0.2 0
0.32 -0.2 0
0.32 -0.2 0
0.32 -0.2 0
0.32 -0.2 0
0.32 -0.2 0
0.32 -0.2 0
0.32 -0.2 0
0.32 -0.2 0
0.32 -0.2 0
0.32 -0.2 0
0.32 -0.2 0
0.32 -0.2 0
0.32 -0.2 0
0.32 -0.2 0
0.32 -0.2 0
0.32 -0.2 0
0.318628048519 -0.198519434015 0
0.317730988303 -0.197664095735 0
0.317082472708 -0.197096120629 0
0.316670415836 -0.196714199232 0
0.316419204369 -0.196457401192 0
0.316283682122 -0.196299221032 0
0.31625437422 -0.196198386294 0
0.31632350413 -0.19614269691 0
0.316430721653 -0.196123878803 0
0.316604992763 -0.196131501363 0
0.316809664352 -0.196155991899 0
0.317037971291 -0.196177284956 0
0.317471823483 -0.196064772301 0
0.317687803129 -0.19592052346 0
0.317921129143 -0.195752354665 0
0.318176506012 -0.195560731732 0
0.318452793333 -0.195337462221 0
0.31874190397 -0.195077159332 0
0.319048353247 -0.194782653065 0
0.319384799271 -0.194450163822 0
0.319748140227 -0.194049664495 0
0.320119077975 -0.193613033256 0
0.320517642065 -0.193105547295 0
0.320965866446 -0.192514690117 0
0.321440194343 -0.191790095468 0
0.321971550351 -0.190884664166 0
0.322480934801 -0.189783234613 0
0.322897854928 -0.188685128667 0
0.323207572463 -0.187627245229 0
0.323438229297 -0.186573007233 0
0.323594603896 -0.185578781209 0
0.323687640215 -0.184612398768 0
0.323725958838 -0.183695092129 0
0.323702641576 -0.182786397319 0
0.323614718894 -0.181997056708 0
0.323477676035 -0.181250282093 0
0.323305457769 -0.18056389231 0
0.323085312594 -0.179933918532 0
0.322838487141 -0.179371434281 0
0.32255668975 -0.178868782206 0
0.322257467691 -0.178431934004 0
0.321925686858 -0.178050002063 0
0.321577765615 -0.177738653212 0
0.321204879384 -0.177486892773 0
0.320824770796 -0.177297334329 0
0.320429794241 -0.177158830059 0
0.319985418933 -0.177045595675 0
0.319561638649 -0.177167450753 0
0.319165845638 -0.177299599423 0
0.318785967979 -0.177485960143 0
0.31842096483 -0.177737574445 0
0.318072708527 -0.178050809255 0
0.317740723032 -0.178429297953 0
0.317431276832 -0.178875168948 0
0.317159701988 -0.179374158251 0
0.316915378274 -0.179939929391 0
0.316696445689 -0.180569276566 0
0.316523335252 -0.181253173136 0
0.316384711222 -0.181996817677 0
0.316301534289 -0.182805281831 0
0.316275978116 -0.183700542916 0
0.316313750509 -0.184615994584 0
0.316407685168 -0.185584655132 0
0.316568165993 -0.186585553239 0
0.316796688178 -0.1876327357 0
0.31711085863 -0.188697512994 0
0.317520984495 -0.189783513482 0
0.318033506363 -0.190892964682 0
0.318566166647 -0.1917990384 0
0.319039652048 -0.192521125147 0
0.319487567853 -0.193110934439 0
0.319885852853 -0.193617704243 0
0.320256555464 -0.194053799684 0
0.320619642043 -0.19445383382 0
0.320955889287 -0.194785935283 0
0.321262161968 -0.195080103807 0
0.321551115737 -0.195340079936 0
0.321827162568 -0.195563020067 0
0.322082276394 -0.195754390997 0
0.322315360976 -0.195922385246 0
0.322531153369 -0.196066509242 0
0.322395460126 -0.192458506702 0
0.317661351001 -0.192441546049 0
0.320046615069 -0.185900533836 0
0.319024982341 -0.186196882067 0
0.32315696231 -0.193947851612 0
0.316843318683 -0.19395187101 0
0.320922774533 -0.18603366237 0
0.320112318819 -0.181826953216 0
0.319862936533 -0.181721276069 0
0.321828800181 -0.19027217886 0
0.31819899264 -0.190181433393 0
0.319868315246 -0.193763621777 0
0.317160768944 -0.196281529624 0
0.322829801296 -0.196373867311 0
0.32057833477 -0.182846583071 0
0.320037444804 -0.186304078042 0
0.319338511976 -0.182798808145 0
0.31997290584 -0.186309101948 0
0.31779413578 -0.193209161037 0
0.32220892782 -0.193196507374 0
0.318865071171 -0.189034761706 0
0.323014514708 -0.195164387688 0
0.316988370413 -0.195161733274 0
0.320069613358 -0.179635465498 0
0.321231629057 -0.188772370298 0
0.321239719159 -0.195750562597 0
0.321016496917 -0.180392163228 0
0.318652026698 -0.195795526636 0
0.319699842504 -0.189272448169 0
0.318971829366 -0.180373674033 0
0.320305712009 -0.189278732778 0
0.323561764182 -0.195525513081 0
0.316442161391 -0.19551947054 0
0.322128281513 -0.189832312595 0
0.31783665111 -0.189959049753 0
0.319472599195 -0.185167173498 0
0.320519457795 -0.18497074626 0
0.320137409224 -0.189937757062 0
0.321477837444 -0.183838779433 0
0.318544023231 -0.183832517176 0
0.320004773712 -0.183279880001 0
0.318709258379 -0.192829493102 0
0.319413196104 -0.179139456094 0
0.318962359371 -0.191985443253 0
0.321041163345 -0.191992812824 0
0.321161116516 -0.192947934229 0
0.322714556468 -0.191888019088 0
0.323030018517 -0.19399375628 0
0.316922645131 -0.194226948612 0
0.317290372379 -0.191869439869 0
0.320766031694 -0.179052015646 0
0.322379063155 -0.194736628218 0
0.317624216082 -0.194733543015 0
0.318646549928 -0.187893014746 0
0.319744672697 -0.183788054137 0
0.321351345189 -0.187907521447 0
0.322184435443 -0.195475256273 0
0.317639837085 -0.195169778333 0
0.32173917173 -0.181213831333 0
0.320198236587 -0.183612751761 0
0.316610375152 -0.196472144602 0
0.317631306431 -0.197790066438 0
0.323394116303 -0.196472094415 0
0.322399400787 -0.197775342105 0
0.318224816711 -0.181177200148 0
0.321175793098 -0.186861212061 0
0.318347853861 -0.197763335418 0
0.318831331068 -0.186868895014 0
0.32149722597 -0.198098005667 0
0.320241540995 -0.196945175099 0
0.319745942842 -0.185043516549 0
0.318488129829 -0.188275147145 0
0.318446363521 -0.19388674326 0
0.321557396831 -0.193890905197 0
0.320159073611 -0.184913182995 0
0.319869779911 -0.178352236906 0
0.32148290889 -0.188078648052 0
0.319518126023 -0.196521240729 0
0.319967844629 -0.18122466316 0
0.317124581954 -0.194207575779 0
0.322886679432 -0.194204511341 0
0.323352251181 -0.195341811749 0
0.323460767196 -0.195683102438 0
0.316541635736 -0.19568127702 0
0.319503974272 -0.187049960955 0
0.320320015807 -0.182154675526 0
0.322437653915 -0.192134065727 0
0.316626305075 -0.195403722241 0
0.320620183311 -0.186998665313 0
0.317559180023 -0.192021550616 0
0.319032432704 -0.18834586886 0
0.319853011283 -0.191220152711 0
0.32015163302 -0.191226604267 0
0.319285635493 -0.190817988827 0
0.321959372035 -0.190335616772 0
0.321026354717 -0.188501918895 0
0.317418482832 -0.19539741439 0
0.32258438352 -0.19539972657 0
0.320336363585 -0.180329830008 0
0.319561454776 -0.181925581418 0
0.318773977372 -0.179127708912 0
0.321798645698 -0.179955325231 0
0.322316963153 -0.182049672905 0
0.318172958093 -0.179997987394 0
0.31765319931 -0.182129269912 0
0.318211716859 -0.190369592657 0
0.321141585898 -0.188631650331 0
0.322095465523 -0.185175974006 0
0.317315287495 -0.192118687292 0
0.318863081723 -0.188637899823 0
0.317908914744 -0.185182591111 0
0.319842011443 -0.183424007128 0
0.320633708102 -0.194680929211 0
0.320143481515 -0.183267573793 0
0.321907580215 -0.193725824153 0
0.322609560054 -0.191816081682 0
0.321101477551 -0.197955818813 0
0.31671192772 -0.194897751776 0
0.323290385847 -0.194910039652 0
0.320418267813 -0.178206149937 0
0.318658925412 -0.19064178854 0
0.321403260251 -0.179110743476 0
0.321321282456 -0.190640851518 0
0.322053056445 -0.189741177105 0
0.323093064106 -0.195732048463 0
0.316909536275 -0.19573004847 0
0.317955676176 -0.189730369025 0
0.318034685594 -0.193836190527 0
0.319491371375 -0.180404924545 0
0.316942075416 -0.193251485059 0
0.318431175485 -0.187969320128 0
0.319056662341 -0.187133680262 0
0.320889073948 -0.19042193984 0
0.316352797625 -0.196135793789 0
0.323646786764 -0.196138370537 0
0.320015236344 -0.187796276367 0
0.318997250587 -0.198141486464 0
0.323071518832 -0.19333553578 0
0.319782579542 -0.180087677622 0
0.321569538567 -0.187962069091 0
0.320945964903 -0.186190806549 0
0.320465545896 -0.19209759903 0
0.316576592502 -0.194891722617 0
0.323426098963 -0.194892982576 0
0.321739975389 -0.191818597325 0
0.322613475564 -0.194212325195 0
0.319262532622 -0.185428037055 0
0.318099682863 -0.192029838402 0
0.321777099663 -0.192015766363 0
0.319138994537 -0.19327125676 0
0.32086524835 -0.193276190366 0
0.320012875646 -0.181968751781 0
0.320580602257 -0.197968781623 0
0.318664371236 -0.198709037959 0
0.319756479331 -0.185072665797 0
0.319236859846 -0.1781873669 0
0.321309135506 -0.198756244364 0
0.320279277601 -0.184989277197 0
0.320958407181 -0.181491750695 0
0.319318719094 -0.197870038731 0
0.320580055438 -0.183925089861 0
0.319981492412 -0.187690153604 0
0.319224732445 -0.19446710137 0
0.320026490933 -0.18765999906 0
0.322501022489 -0.183475229402 0
0.317497464237 -0.183476751086 0
0.318206291507 -0.194655157395 0
0.321797515464 -0.194658461735 0
0.31899530966 -0.181374423317 0
0.320478957284 -0.180964994032 0
0.320042268857 -0.183843456884 0
0.319963990305 -0.183799165834 0
0.317185344455 -0.193293921045 0
0.318636316037 -0.191138400663 0
0.320652222328 -0.186459844253 0
0.318227971414 -0.19661247636 0
0.322778061687 -0.193301109455 0
0.32291122151 -0.192921657873 0
0.320515406407 -0.188695774629 0
0.319318665869 -0.186652345335 0
0.3163469279 -0.195939788148 0
0.323654647883 -0.195941210707 0
0.321311233502 -0.182631314947 0
0.319389001541 -0.183904598489 0
0.319459647491 -0.189023049596 0
0.321443583094 -0.198740421618 0
0.320091497364 -0.180766265078 0
0.323103510646 -0.197047748895 0
0.316916365668 -0.197082692335 0
0.320965583432 -0.185258704569 0
0.318993709043 -0.185295457431 0
0.318476895659 -0.198661052033 0
0.317346097177 -0.19393870505 0
0.317667076329 -0.190994092286 0
0.317131294942 -0.195460186752 0
0.317726454954 -0.197438594484 0
0.317748355917 -0.190959479206 0
0.322372618346 -0.19110934908 0
0.322333449634 -0.196548043349 0
0.322257307298 -0.197476585785 0
0.3229119959 -0.195197026843 0
0.318618622207 -0.182381738537 0
0.31767437697 -0.196487199072 0
0.319838351828 -0.183231433432 0
0.319853271671 -0.198223951115 0
0.319842938677 -0.191745864699 0
0.321025667204 -0.187286478129 0
0.320825839194 -0.190193185922 0
0.320128243244 -0.183082533575 0
0.319179043466 -0.190199084065 0
0.323522004969 -0.195832210478 0
0.321009243993 -0.178412006103 0
0.317832638045 -0.194066118041 0
0.322171106693 -0.194069832481 0
0.319754388742 -0.192468421602 0
0.320250211116 -0.192474456572 0
0.318149450647 -0.192113481203 0
0.317049644163 -0.192977624193 0
0.320361092521 -0.179106393632 0
0.319186874726 -0.193016629399 0
0.31837105901 -0.192975901703 0
0.321633309691 -0.192978428368 0
0.316488552558 -0.195784016762 0
0.323281688246 -0.194455746247 0
0.320622028188 -0.184994764565 0
0.31783811929 -0.195205432963 0
0.322165262774 -0.195208063009 0
0.321624580729 -0.197053066669 0
0.316734007826 -0.194442053664 0
0.317186953091 -0.195772019705 0
0.322815802381 -0.195774010303 0
0.322337793133 -0.180752214707 0
0.320011967007 -0.182295109042 0
0.322916191644 -0.196931184055 0
0.317075229668 -0.196927293302 0
0.318452794305 -0.188968157353 0
0.32079351097 -0.179924262698 0
0.320015644133 -0.184290970534 0
0.319778135566 -0.179201549916 0
0.322439339073 -0.190834824682 0
0.32157269799 -0.189029999606 0
0.318829179277 -0.186868191123 0
0.318275363895 -0.179095580505 0
0.31770126831 -0.180794290324 0
0.322769911978 -0.193294827783 0
0.317170453396 -0.194758853854 0
0.322833098458 -0.194760623143 0
0.321276299898 -0.194254482949 0
0.317555279563 -0.190856333832 0
0.318974149753 -0.186602562885 0
0.319626477385 -0.184966437627 0
0.318603444639 -0.19422266715 0
0.319867980114 -0.195869187485 0
0.322000838949 -0.186931089045 0
0.318005479047 -0.186938872437 0
0.318885790389 -0.189491700874 0
0.321033890385 -0.189457371626 0
0.316452756306 -0.196460745946 0
0.323549709828 -0.196461732209 0
0.319366643508 -0.185160457664 0
0.321071597505 -0.186762538946 0
0.320219386658 -0.185227092452 0
0.321717047427 -0.195435407536 0
0.318856164883 -0.178439881916 0
0.321377987752 -0.19048626026 0
0.323327000387 -0.195869437589 0
0.31667544952 -0.19586762265 0
0.319437085817 -0.190513620476 0
0.319177958102 -0.179676752188 0
0.320567336051 -0.190519360597 0
0.319569514392 -0.184310378633 0
0.320710809566 -0.196364271372 0
0.320858055321 -0.198855265107 0
0.322290846934 -0.190936762957 0
0.318081144016 -0.189490775289 0
0.323316592212 -0.195295792867 0
0.31668629177 -0.195293825199 0
0.323208891665 -0.196140427909 0
0.316779988779 -0.196100788438 0
0.319416444837 -0.181039663323 0
0.32207222232 -0.191339991963 0
0.321920336538 -0.179147456441 0
0.32009561183 -0.177754798941 0
0.319846423629 -0.181052780643 0
0.317055103736 -0.193210835541 0
0.317940660495 -0.191487799115 0
0.31897092404 -0.193942401185 0
0.321033200639 -0.193946523479 0
0.320297826473 -0.187180152406 0
0.320365528713 -0.184046065274 0
0.319568799733 -0.177947736298 0
0.322412722348 -0.197826952267 0
0.317394387348 -0.193853613457 0
0.322591825321 -0.193858172301 0
0.321777438506 -0.18903288109 0
0.317400843491 -0.19763489057 0
0.319192180954 -0.198926592425 0
0.32286159061 -0.192487087048 0
0.318114361633 -0.195577717179 0
0.320295068954 -0.182800926522 0
0.321580210711 -0.189058685643 0
0.321745319562 -0.188649553834 0
0.320427309552 -0.184897227733 0
0.32126393714 -0.187017900117 0
0.318529575478 -0.189117073667 0
0.316866237586 -0.195172581401 0
0.321424961987 -0.180754922739 0
0.321173410687 -0.182094981136 0
0.316928112275 -0.194743171196 0
0.323074097125 -0.194760569383 0
0.318645713864 -0.19443094961 0
0.321358163592 -0.194434607736 0
0.319851757637 -0.18219428983 0
0.322309812497 -0.192623361276 0
0.322310079766 -0.19367305536 0
0.31972418257 -0.182831564072 0
0.31823338662 -0.188704036281 0
0.31952975221 -0.185785732583 0
0.31746512315 -0.192862470917 0
0.317135457187 -0.195484546115 0
0.32286725617 -0.195486834649 0
0.320249311173 -0.19841665034 0
0.32060948232 -0.186318653557 0
0.320576184801 -0.187927661641 0
0.317151275859 -0.192462093097 0
0.320525660208 -0.185742651077 0
0.318534775733 -0.180735664498 0
0.317332312632 -0.192904707855 0
0.320613802664 -0.18717453758 0
0.320887301556 -0.199061868637 0
0.322891083627 -0.182600669476 0
0.319439277926 -0.187942469644 0
0.319166809391 -0.196178940777 0
0.320167098831 -0.181042791619 0
0.3194857116 -0.186448328659 0
0.319876256814 -0.184054137845 0
0.32284223523 -0.184204479873 0
0.317071901523 -0.182605259789 0
0.319440579655 -0.187157652349 0
0.317158924703 -0.184209604515 0
0.319983712578 -0.180393484602 0
0.320139660681 -0.183992243187 0
0.320162439445 -0.1786653939 0
0.323575191998 -0.195926583881 0
0.316426878338 -0.195924905322 0
0.322783194577 -0.181146311315 0
0.322438739613 -0.180021633194 0
0.319718587555 -0.198785254302 0
0.317578486942 -0.180023122982 0
0.317220301385 -0.181185020907 0
0.322664833653 -0.186051522803 0
0.322169336098 -0.187889741613 0
0.320079546243 -0.182388714308 0
0.317341142812 -0.18605938649 0
0.317836619112 -0.187897430683 0
0.323194609461 -0.194824574287 0
0.321448172686 -0.196595340675 0
0.319827606288 -0.186887199241 0
0.320826892747 -0.177901986229 0
0.318654952332 -0.179673783647 0
0.321442513987 -0.178356900524 0
0.320680478432 -0.18122988101 0
0.322977868565 -0.193829615268 0
0.323313164642 -0.195594687964 0
0.316689389019 -0.195592669377 0
0.317677154431 -0.193599156824 0
0.323463947534 -0.195285744475 0
0.316538541258 -0.195283676902 0
0.320350490938 -0.193588539322 0
0.319337615258 -0.185584313088 0
0.320524155436 -0.198763459631 0
0.319545524274 -0.178686475159 0
0.32080008967 -0.188380402542 0
0.320533764929 -0.191708103824 0
0.319471416149 -0.191715517961 0
0.316859221642 -0.194367821615 0
0.320799326484 -0.186121186767 0
0.318339002144 -0.182948868784 0
0.320228229974 -0.183774077732 0
0.322545500013 -0.195621931024 0
0.319963421015 -0.182490041456 0
0.319195559594 -0.186028217776 0
0.321410012665 -0.179777330987 0
0.320002825069 -0.182131081714 0
0.316761908939 -0.19403438106 0
0.319082151908 -0.189750075733 0
0.319589617599 -0.179986270027 0
0.319685702026 -0.190211014408 0
0.319138623321 -0.187877213177 0
0.321904809967 -0.184270024863 0
0.320132609798 -0.190089463233 0
0.319872412653 -0.190095412161 0
0.318101940008 -0.18427597625 0
0.32028579349 -0.186069951575 0
0.320494523866 -0.179586341664 0
0.321986180107 -0.183067411759 0
0.323509066911 -0.195382114463 0
0.316496894027 -0.195352716759 0
0.319195761649 -0.199138096582 0
0.31972007861 -0.183778794681 0
0.323236159218 -0.19401490534 0
0.320251860913 -0.179745983172 0
0.318404167991 -0.17858267357 0
0.317238871212 -0.195130454253 0
0.322763645394 -0.195132992156 0
0.317620611692 -0.195635397714 0
0.32238248432 -0.195637532281 0
0.319158217772 -0.179097849138 0
0.317274457309 -0.192272367414 0
0.321726077222 -0.181962967038 0
0.323128958513 -0.195776290837 0
0.320668909537 -0.185895620688 0
0.318735005443 -0.181686941001 0
0.323143080836 -0.194373355509 0
0.317042175012 -0.195928542873 0
0.32296049339 -0.195930378341 0
0.320747655281 -0.193177454482 0
0.322035178036 -0.191549878 0
0.321347633303 -0.185793697475 0
0.317473422823 -0.194341926505 0
0.322529790303 -0.194344422459 0
0.318545406472 -0.191563420792 0
0.31995243769 -0.182858073063 0
0.321415583287 -0.191593747758 0
0.320667969787 -0.185186494699 0
0.320672566463 -0.178520078953 0
0.317557847401 -0.191062376611 0
0.318666392155 -0.185829404354 0
0.319343235221 -0.191343478755 0
0.320661134952 -0.191349543867 0
0.321619420254 -0.193088122255 0
0.318600138264 -0.189332244754 0
0.319124114165 -0.199244377877 0
0.318231633662 -0.195041390312 0
0.321772110212 -0.195044319389 0
0.320971287251 -0.179359773109 0
0.321473369818 -0.189481828155 0
0.318530084667 -0.18948681443 0
0.319689737002 -0.184479886697 0
0.320043664221 -0.182916940299 0
0.319364370532 -0.198586863318 0
0.319434558707 -0.188668057794 0
0.318940439834 -0.191714178868 0
0.322671099989 -0.192056299426 0
0.320500830628 -0.190824161423 0
0.320575127959 -0.18873061433 0
0.320315801856 -0.184359298041 0
0.323570763934 -0.19567727859 0
0.316431596593 -0.195675695071 0
0.318896041584 -0.187838936086 0
0.318088733621 -0.193557202013 0
0.32191226933 -0.193550534147 0
0.322004227935 -0.190012724192 0
0.318666389908 -0.19337104236 0
0.321319590548 -0.19336015816 0
0.316303797891 -0.196095039569 0
0.323697580783 -0.196096863679 0
0.318761367837 -0.186955714138 0
0.320963896808 -0.197210734291 0
0.322993754226 -0.193294054339 0
0.320868869274 -0.191833286378 0
0.321425712124 -0.189420037363 0
0.320032388425 -0.18252165415 0
0.319721002298 -0.185635378216 0
0.317848973791 -0.179339961549 0
0.322051332232 -0.192687154784 0
0.323316062802 -0.194505904707 0
0.316685031888 -0.194506512283 0
0.317747574136 -0.192227026108 0
0.318003991912 -0.189996492429 0
0.320354734939 -0.184293425276 0
0.318636355546 -0.190156909117 0
0.319668459084 -0.181341755724 0
0.321595250218 -0.189911180136 0
0.321011500954 -0.189480762145 0
0.319649565781 -0.194721020225 0
0.321139706271 -0.187979929288 0
0.321941352728 -0.180524029207 0
0.321853358961 -0.188940530527 0
0.322914683262 -0.192692595048 0
0.320316424966 -0.195695788152 0
0.318305463487 -0.188520772179 0
0.319662396056 -0.187957622996 0
0.318937413674 -0.197354928827 0
0.318304466078 -0.193117372158 0
0.318602251286 -0.187627617835 0
0.319705833502 -0.183927497595 0
0.318723535865 -0.18809627127 0
0.317892500637 -0.19147690537 0
0.318054251388 -0.180521365956 0
0.317874993565 -0.181508383404 0
0.316845093956 -0.195973463113 0
0.323157446668 -0.195975228588 0
0.323647489567 -0.195898616505 0
0.316354204728 -0.195898602027 0
0.320400206677 -0.177675669842 0
0.320303610278 -0.181006592143 0
0.32138674289 -0.187629075301 0
0.319883507478 -0.182770846149 0
0.322064001894 -0.19460655483 0
0.318570570969 -0.1977123654 0
0.323090821304 -0.193466939384 0
0.320251482363 -0.183687566756 0
0.320101491255 -0.185794949111 0
0.321185729338 -0.187224170324 0
0.318508441427 -0.190146637989 0