# vtk DataFile Version 2.0
Generated with Solid Solver
ASCII
DATASET UNSTRUCTURED_GRID
POINTS 999 float 
0.2 4.325 0.0
1.4 4.325 0.0
1.4 4.825 0.0
0.2 4.825 0.0
1.4 4.34523264049 0.0
1.4 4.36751203886 0.0
1.4 4.39204525371 0.0
1.4 4.4190602782 0.0
1.4 4.44880817466 0.0
1.4 4.48156541084 0.0
1.4 4.51763640748 0.0
1.4 4.5573564007 0.0
1.4 4.60109451608 0.0
1.4 4.64925723872 0.0
1.4 4.70229217343 0.0
1.4 4.76069218095 0.0
1.33333333333 4.825 0.0
1.26666666667 4.825 0.0
1.2 4.825 0.0
1.13333333333 4.825 0.0
1.06666666667 4.825 0.0
1.0 4.825 0.0
0.933333333334 4.825 0.0
0.866666666668 4.825 0.0
0.800000000001 4.825 0.0
0.733333333334 4.825 0.0
0.666666666668 4.825 0.0
0.600000000001 4.825 0.0
0.533333333334 4.825 0.0
0.466666666667 4.825 0.0
0.4 4.825 0.0
0.333333333334 4.825 0.0
0.266666666667 4.825 0.0
0.2 4.76069218095 0.0
0.2 4.70229217343 0.0
0.2 4.64925723872 0.0
0.2 4.60109451608 0.0
0.2 4.5573564007 0.0
0.2 4.51763640748 0.0
0.2 4.48156541084 0.0
0.2 4.44880817466 0.0
0.2 4.4190602782 0.0
0.2 4.39204525371 0.0
0.2 4.36751203886 0.0
0.2 4.34523264049 0.0
0.212131543907 4.30926329506 0.0
0.224675715302 4.29385348652 0.0
0.23762369102 4.27878141198 0.0
0.250966423879 4.26405760374 0.0
0.264694484585 4.24969246611 0.0
0.278798324214 4.23569599189 0.0
0.293267939266 4.22207810803 0.0
0.308093289028 4.20884826442 0.0
0.323263842145 4.19601585877 0.0
0.338769084145 4.18358978512 0.0
0.354597997314 4.17157887342 0.0
0.37073960121 4.15999145532 0.0
0.387182441982 4.14883575334 0.0
0.403915091795 4.13811952025 0.0
0.420925712897 4.12785033813 0.0
0.438202430937 4.11803537461 0.0
0.455733079095 4.10868154223 0.0
0.473505374364 4.09979539439 0.0
0.491506842655 4.09138316882 0.0
0.509724826085 4.0834507802 0.0
0.528146580414 4.07600377808 0.0
0.546759103951 4.06904741762 0.0
0.56554943677 4.06258654322 0.0
0.584504260001 4.05662573401 0.0
0.60361041518 4.0511691282 0.0
0.622854334779 4.04622060039 0.0
0.642222678753 4.04178358113 0.0
0.661701681839 4.03786122392 0.0
0.681277836375 4.03445624851 0.0
0.700937245817 4.03157107217 0.0
0.720666255912 4.02920769845 0.0
0.740450894784 4.02736780161 0.0
0.76027736978 4.02605266363 0.0
0.780131702711 4.02526321235 0.0
0.799999999998 4.025 0.0
0.819868297285 4.02526321235 0.0
0.839722630216 4.02605266363 0.0
0.859549105212 4.02736780161 0.0
0.879333744085 4.02920769845 0.0
0.89906275418 4.03157107217 0.0
0.918722163621 4.03445624851 0.0
0.938298318157 4.03786122392 0.0
0.957777321244 4.04178358113 0.0
0.977145665218 4.04622060039 0.0
0.996389584817 4.0511691282 0.0
1.01549574 4.05662573401 0.0
1.03445056323 4.06258654322 0.0
1.05324089605 4.06904741762 0.0
1.07185341958 4.07600377808 0.0
1.09027517391 4.0834507802 0.0
1.10849315734 4.09138316882 0.0
1.12649462563 4.09979539439 0.0
1.1442669209 4.10868154222 0.0
1.16179756906 4.1180353746 0.0
1.1790742871 4.12785033813 0.0
1.1960849082 4.13811952024 0.0
1.21281755802 4.14883575334 0.0
1.22926039879 4.15999145532 0.0
1.24540200269 4.17157887342 0.0
1.26123091585 4.18358978512 0.0
1.27673615785 4.19601585877 0.0
1.29190671097 4.20884826442 0.0
1.30673206073 4.22207810803 0.0
1.32120167579 4.23569599189 0.0
1.33530551541 4.24969246611 0.0
1.34903357612 4.26405760374 0.0
1.36237630898 4.27878141198 0.0
1.3753242847 4.29385348652 0.0
1.38786845609 4.30926329506 0.0
1.05632730172 4.46025283906 0.0
0.549964048968 4.4630053958 0.0
0.806135520676 4.31186690218 0.0
0.603895783049 4.26079310371 0.0
1.22984770884 4.38318704125 0.0
0.3703382852 4.38423552752 0.0
0.995322815839 4.25565031136 0.0
0.728315816804 4.1765935937 0.0
0.872128173905 4.17288724072 0.0
1.14059401893 4.27298468684 0.0
0.461553191009 4.27181671009 0.0
0.784706775856 4.56821390922 0.0
0.398287125272 4.57945970538 0.0
1.20625306554 4.58334743514 0.0
0.624100842742 4.1589824436 0.0
0.5257453845 4.18811776279 0.0
0.978502430793 4.15488737058 0.0
1.07419209812 4.18825154482 0.0
0.364313698077 4.28677035763 0.0
1.23509538257 4.28681716733 0.0
0.68124123937 4.39284548972 0.0
1.31679378691 4.35012066749 0.0
0.283206213094 4.35012066749 0.0
0.791498533126 4.11467141721 0.0
0.931481076052 4.3801344917 0.0
0.966719065571 4.62778042839 0.0
0.684451667517 4.11068036752 0.0
0.618335406951 4.62686910993 0.0
0.450982331762 4.19686171732 0.0
0.915674266355 4.10995633851 0.0
1.14900051594 4.19689012964 0.0
1.30193709687 4.4481448133 0.0
0.298574667609 4.44816296922 0.0
1.05734787542 4.34990107617 0.0
0.539273225177 4.35252599628 0.0
0.709896798149 4.27721026287 0.0
0.895708916005 4.26924194389 0.0
0.813273511364 4.43835766235 0.0
0.559289631452 4.13230879113 0.0
1.04001407307 4.13281539633 0.0
0.801161810585 4.23146244955 0.0
0.665113819616 4.52056650186 0.0
0.852577362173 4.09111846388 0.0
0.390256727869 4.2242806298 0.0
1.20974450479 4.22428104599 0.0
0.921542541183 4.52778058719 0.0
1.14030889032 4.36437344809 0.0
1.15600477272 4.46808538305 0.0
0.435243219029 4.4750581257 0.0
0.462045157798 4.36654654286 0.0
0.735806812738 4.08472269746 0.0
1.30082934537 4.29793772796 0.0
0.299170654625 4.29793772796 0.0
0.533651712118 4.26265983853 0.0
0.666130919144 4.21652131559 0.0
1.0676097303 4.26179469382 0.0
1.08054433577 4.58530946155 0.0
0.506773767255 4.56568295079 0.0
0.626745312844 4.10124420826 0.0
0.933845304214 4.2106954732 0.0
0.293717639664 4.55175000185 0.0
0.312505022079 4.66426411351 0.0
1.3058164124 4.55154930624 0.0
1.29054387065 4.66302765963 0.0
0.973467966326 4.09941619478 0.0
0.487935413164 4.15087084015 0.0
0.461549079751 4.68836834982 0.0
1.11203248746 4.15093503889 0.0
1.14453515393 4.70617370303 0.0
0.840217564202 4.68891146633 0.0
0.585347033288 4.20539048534 0.0
0.619177396637 4.34227576306 0.0
0.331644410315 4.24962190462 0.0
1.26835558968 4.24962190462 0.0
1.01536156978 4.19987473052 0.0
0.809331033562 4.07065709122 0.0
0.982321540791 4.33437358971 0.0
0.725600576914 4.66999651799 0.0
0.812291456186 4.16642942492 0.0
0.335887692543 4.33918235669 0.0
1.26344844681 4.34017131907 0.0
1.23449730504 4.49457441524 0.0
1.34334172095 4.40539551957 0.0
0.256658279045 4.40539551957 0.0
0.741646926828 4.34287908527 0.0
0.674799084703 4.16673768522 0.0
1.18647435526 4.30955189749 0.0
0.360563250283 4.49596479569 0.0
0.873716483853 4.33845499203 0.0
0.418704489949 4.31146264283 0.0
0.492670911224 4.22931614809 0.0
0.403480880356 4.19046776931 0.0
1.19651541215 4.1904686246 0.0
0.728649253738 4.46214546491 0.0
1.00883674467 4.40174664879 0.0
1.11035034557 4.23161841276 0.0
0.261968539765 4.3130079512 0.0
1.33803146023 4.3130079512 0.0
0.74649980488 4.1318354354 0.0
0.927597725248 4.1577597079 0.0
0.892956618256 4.07619338913 0.0
0.659794281787 4.07951387326 0.0
0.587663534405 4.09486537006 0.0
0.942353209926 4.07935300973 0.0
1.01493747319 4.09476013719 0.0
0.613130017774 4.41369803882 0.0
0.449373501074 4.15377191978 0.0
0.514840228377 4.12225850006 0.0
0.497057592 4.41333092106 0.0
1.15061382426 4.15379293084 0.0
1.08514419473 4.12228328152 0.0
0.745617635771 4.23098957592 0.0
0.87523452213 4.59853036549 0.0
0.855262884783 4.2258970831 0.0
1.01126200032 4.53280064162 0.0
1.09391916408 4.40632408872 0.0
1.04436265455 4.71482000827 0.0
0.314320181089 4.38773968607 0.0
1.28649331902 4.38743720145 0.0
0.771211579291 4.06316862024 0.0
0.432259099658 4.24006002157 0.0
0.698583889427 4.07144353526 0.0
1.16802128371 4.238862881 0.0
1.09587629216 4.3086676659 0.0
1.35920470355 4.35666960471 0.0
0.240795296449 4.35666960471 0.0
0.504003580654 4.30815758118 0.0
0.579942709371 4.5342075073 0.0
0.875915224914 4.12815792528 0.0
0.426503136644 4.40717733008 0.0
0.57541416445 4.30365301522 0.0
0.683877978289 4.33161848113 0.0
0.888061695889 4.44633509246 0.0
0.26012287522 4.49859249103 0.0
1.33987712478 4.49859249103 0.0
0.801393572636 4.37060096582 0.0
0.558460082533 4.72496728209 0.0
1.1741923373 4.41132830101 0.0
0.83220012886 4.12779415912 0.0
1.02815069622 4.30053276509 0.0
0.948308583502 4.2880204454 0.0
0.846588933095 4.50834596945 0.0
0.343666800815 4.43485820652 0.0
1.25632767671 4.43480360053 0.0
0.97849585731 4.47031535602 0.0
1.10170977548 4.51507265998 0.0
0.662193131828 4.26809398492 0.0
0.400503668388 4.26881657105 0.0
1.20117145985 4.26130427377 0.0
0.350957892513 4.21796558019 0.0
1.24904210749 4.21796558019 0.0
0.771964652188 4.18905379403 0.0
0.932165148285 4.72736281402 0.0
0.373672364094 4.73321357765 0.0
0.760245937722 4.28409350779 0.0
0.848718469252 4.05767763075 0.0
1.23385612561 4.7358294747 0.0
0.846421485813 4.28065918421 0.0
0.651597058631 4.13043284014 0.0
0.650489852552 4.72138045504 0.0
0.58457834847 4.16375088261 0.0
0.48701309933 4.18859927013 0.0
0.708495738406 4.58856947756 0.0
1.11203398596 4.18878062515 0.0
0.54865558244 4.10250047869 0.0
1.05126102377 4.10234629471 0.0
0.300013757486 4.26259646442 0.0
1.29998624251 4.26259646442 0.0
0.9465032388 4.12718070354 0.0
0.708587583337 4.14146095907 0.0
0.973348904468 4.19537871864 0.0
0.628721855632 4.19538356945 0.0
0.380175010018 4.34021880077 0.0
0.662092932411 4.45899041267 0.0
1.05133526787 4.22221992007 0.0
0.528087045766 4.64327882187 0.0
1.22233124543 4.33521693908 0.0
1.19001193434 4.36273586668 0.0
0.853024099244 4.39544003492 0.0
0.542800296246 4.22324366905 0.0
0.247706318737 4.45239119247 0.0
1.35229368126 4.45239119247 0.0
0.599153768578 4.12953797005 0.0
1.01616570494 4.16227683178 0.0
0.744705786938 4.40569544575 0.0
1.31929001115 4.73702550052 0.0
0.777615355331 4.15113602511 0.0
1.33132411895 4.60631378639 0.0
0.265621610877 4.60975488866 0.0
0.532023338888 4.15374454388 0.0
1.0697792195 4.15241429251 0.0
0.286371037106 4.73010312914 0.0
0.497725885905 4.50153668256 0.0
0.46053455822 4.31587947599 0.0
0.433799237968 4.54629400991 0.0
0.388624781906 4.65094200004 0.0
0.554823673752 4.40451940232 0.0
1.1421595646 4.31818301431 0.0
1.14760043966 4.61655103139 0.0
1.21258698805 4.65320200685 0.0
1.16279096046 4.53292621409 0.0
0.995762647814 4.12508772517 0.0
0.456229040627 4.61456685246 0.0
0.707289391156 4.21520271873 0.0
0.763036833302 4.74285445535 0.0
0.78386198569 4.49787013126 0.0
[...]
POINT_DATA 999
VECTORS Displacement float
0.399860711088 -0.0398660465409 0
0.400134930019 -0.0398689859889 0
0.4 -0.04 0
0.4 -0.04 0
0.400141969347 -0.0398682989241 0
0.400148845874 -0.0398672408631 0
0.400154964735 -0.039865840561 0
0.400159962204 -0.0398647068617 0
0.400162493226 -0.0398642295353 0
0.400163456339 -0.0398648037663 0
0.40016053572 -0.039866799639 0
0.400153301983 -0.0398706643533 0
0.400141053491 -0.0398781285239 0
0.400121722164 -0.0398903763324 0
0.400094513839 -0.0399102169798 0
0.400056323135 -0.0399422188083 0
0.4 -0.04 0
0.4 -0.04 0
0.4 -0.04 0
0.4 -0.04 0
0.4 -0.04 0
0.4 -0.04 0
0.4 -0.04 0
0.4 -0.04 0
0.4 -0.04 0
0.4 -0.04 0
0.4 -0.04 0
0.4 -0.04 0
0.4 -0.04 0
0.4 -0.04 0
0.4 -0.04 0
0.4 -0.04 0
0.4 -0.04 0
0.399943459492 -0.0399418089338 0
0.399904810853 -0.0399093946045 0
0.399876100796 -0.0398889704944 0
0.399856947488 -0.0398761528258 0
0.3998444431 -0.0398683705638 0
0.399836784294 -0.0398642979004 0
0.399833526839 -0.0398622032301 0
0.399834208766 -0.0398615315824 0
0.399836483701 -0.0398619265496 0
0.399841246748 -0.0398629925944 0
0.39984714965 -0.0398643453083 0
0.399853834242 -0.0398653732476 0
0.399866365495 -0.0398625659142 0
0.399872604548 -0.0398587921023 0
0.39987940744 -0.0398544113064 0
0.3998868872 -0.0398494058704 0
0.399894971908 -0.0398435665429 0
0.39990345921 -0.0398367456866 0
0.39991240041 -0.0398290758298 0
0.399922095822 -0.0398204538446 0
0.399932328575 -0.0398103267085 0
0.399942713487 -0.0397994429314 0
0.39995363694 -0.0397871623667 0
0.399965245864 -0.039773560929 0
0.399977028018 -0.0397582972757 0
0.399989316241 -0.0397415724906 0
0.400001959907 -0.0397231818301 0
0.400015069509 -0.039702858522 0
0.400028299438 -0.0396804406907 0
0.400042280023 -0.0396559107618 0
0.400056235198 -0.0396287506093 0
0.400070878652 -0.0395986820819 0
0.400085242084 -0.0395655508768 0
0.400100758381 -0.0395288896774 0
0.400115708744 -0.0394877449858 0
0.400131649442 -0.0394419588965 0
0.400147371664 -0.0393903563494 0
0.400164950686 -0.0393308462388 0
0.400180607306 -0.0392626357956 0
0.400198837713 -0.0391798205366 0
0.400212497701 -0.0390807222041 0
0.400228792979 -0.0389485645113 0
0.400233154028 -0.0387297228168 0
0.400199842468 -0.0385475780754 0
0.400146105998 -0.0384195882412 0
0.400079726516 -0.03834208726 0
0.399992945058 -0.0383120779279 0
0.399913713481 -0.0383395629519 0
0.399841528184 -0.0384209913118 0
0.399785840848 -0.038549611286 0
0.399754050061 -0.0387315511681 0
0.399763528022 -0.0389553179095 0
0.399777311109 -0.0390825571201 0
0.399796023803 -0.0391817762811 0
0.399811726874 -0.0392641717163 0
0.399827663315 -0.0393324562235 0
0.399845330406 -0.0393919449795 0
0.399861139725 -0.0394436738131 0
0.399877264644 -0.0394895190549 0
0.399892408123 -0.0395304894463 0
0.399907931625 -0.0395670761436 0
0.399922363176 -0.0396002673704 0
0.399937071482 -0.0396304154319 0
0.399951133275 -0.0396576725919 0
0.399965243903 -0.0396822962716 0
0.399978609975 -0.0397047910388 0
0.399991852306 -0.0397251827018 0
0.400004625165 -0.0397436367943 0
0.400017037706 -0.0397604246994 0
0.40002894269 -0.0397757541942 0
0.400040675119 -0.0397894242686 0
0.400051725716 -0.0398017730963 0
0.40006224055 -0.0398127226689 0
0.40007259902 -0.0398229081282 0
0.400082416042 -0.0398315839958 0
0.400091475278 -0.0398393072388 0
0.400100081085 -0.0398461830164 0
0.4001082817 -0.0398520776961 0
0.400115877483 -0.0398571418726 0
0.400122797247 -0.0398615846233 0
0.400129153624 -0.0398654264396 0
0.400129238217 -0.0397150033613 0
0.399870237309 -0.039711782285 0
0.400003065544 -0.0393262621119 0
0.399877350544 -0.0394670742679 0
0.400151804678 -0.0397992885615 0
0.399844490491 -0.0397975907491 0
0.400116705498 -0.039462067677 0
0.399924611605 -0.0390637004755 0
0.40006845676 -0.0390571321335 0
0.400119300195 -0.0396928570379 0
0.399876288256 -0.0396881517587 0
0.399991627256 -0.0397356271131 0
0.399869421718 -0.0398665172015 0
0.400127869309 -0.0398709267652 0
0.399925454677 -0.0393440153919 0
0.399924531754 -0.0395758538653 0
0.400062827539 -0.0393511586364 0
0.400069873118 -0.0395773714079 0
0.399874212178 -0.0397837997111 0
0.400121102879 -0.0397854114562 0
0.39991350332 -0.039529146085 0
0.400144275389 -0.0398391749431 0
0.399851631853 -0.039836807113 0
0.399987612357 -0.0387374001755 0
0.400091735698 -0.0395226684486 0
0.400062527743 -0.0398295631937 0
0.399955991118 -0.0390908356541 0
0.399930932925 -0.0398321534631 0
0.399927739806 -0.0396888700787 0
0.400035815219 -0.0390930923265 0
0.400066704991 -0.039690729557 0
0.400160226846 -0.0398471829488 0
0.39983663483 -0.0398450914185 0
0.400136709095 -0.0396289835955 0
0.399858930571 -0.0396334153093 0
0.39991773044 -0.0393128239707 0
0.400082011386 -0.0393066391188 0
0.400008218563 -0.039554435795 0
0.399981854317 -0.0395026070678 0
0.400012239441 -0.0395024401923 0
0.399998149068 -0.0391362655216 0
0.399925403417 -0.0397034218313 0
0.400020876835 -0.0387464619938 0
0.399910031962 -0.0397569112269 0
0.400084684414 -0.0397589975608 0
0.400064725737 -0.0397070834099 0
0.400145937925 -0.0397247089213 0
0.40014716021 -0.0397881978376 0
0.399849402422 -0.0397954824119 0
0.399850297444 -0.0397218081908 0
0.399976924132 -0.0387780395878 0
0.400124833584 -0.0398286582633 0
0.399870602588 -0.0398262670387 0
0.399875728009 -0.0395870687188 0
0.399894542626 -0.0392897768896 0
0.400118841852 -0.0395903626339 0
0.400105913567 -0.0398291889842 0
0.399883493971 -0.03981857501 0
0.40000891155 -0.0393174162332 0
0.40009885049 -0.0392831926578 0
0.399849581425 -0.0398742792856 0
0.39989668487 -0.0399198112659 0
0.400148321249 -0.0398758175766 0
0.400103286765 -0.0399201299805 0
0.399979919767 -0.0393194442888 0
0.399971125772 -0.0396348924761 0
0.399923475362 -0.0399168872221 0
0.400022786763 -0.0396366126964 0
0.400068105376 -0.0399297593021 0
0.400011984231 -0.0398741425379 0
0.399898554506 -0.0394643882196 0
0.399877540109 -0.0395275833818 0
0.399895210714 -0.0398048870824 0
0.400099799327 -0.0398072006059 0
0.400091659255 -0.0394642526993 0
0.399994495667 -0.0385318703668 0
0.40011902982 -0.0395220644958 0
0.399974604029 -0.0398568708178 0
0.40001108254 -0.0389413279521 0
0.399854370488 -0.0398093191274 0
0.400141756558 -0.0398111828637 0
0.400152764443 -0.039838743508 0
0.400157377797 -0.03985271747 0
0.399839004499 -0.0398503414313 0
0.399949276111 -0.0394060265496 0
0.399909761463 -0.0391973908405 0
0.400132631536 -0.0397486409442 0
0.399844002767 -0.039839566022 0
0.400059439148 -0.0394090704506 0
0.399862053716 -0.0397426363654 0
0.399897170075 -0.0396373513422 0
0.399936682525 -0.0397425431181 0
0.400057719611 -0.0397445646707 0
0.399952422628 -0.039603092505 0
0.400122823946 -0.0396215773678 0
0.400098687952 -0.0396438388981 0
0.399864700558 -0.0398442482734 0
0.400130853312 -0.0398468039314 0
0.399944879043 -0.0388898928374 0
0.400079226388 -0.0391948828453 0
0.399986086014 -0.0389314259917 0
0.400040861888 -0.0391885306557 0
0.400040017022 -0.0394336023397 0
0.399949592129 -0.0391994124929 0
0.399952416766 -0.039442004552 0
0.399883498309 -0.0396131989889 0
0.399971236429 -0.0396891235989 0
0.400006239606 -0.0395902189304 0
0.399852709877 -0.0397163360202 0
0.400022758756 -0.0396909960794 0
0.399987173364 -0.0395917685347 0
0.399942039539 -0.0391692026233 0
0.400033242726 -0.039778260551 0
0.400054397791 -0.0391587372436 0
0.400100147699 -0.0397533363004 0
0.400142611564 -0.0397052360032 0
0.40005240425 -0.0399214017313 0
0.39984281785 -0.0398278183971 0
0.40015343563 -0.0398302273943 0
0.400008953386 -0.0385358921711 0
0.3998964012 -0.0397157001406 0
0.400027232311 -0.0389776387105 0
0.400097517952 -0.0397177086434 0
0.400133525364 -0.0396507849398 0
0.400146139691 -0.0398551916879 0
0.399849785026 -0.0398525841512 0
0.399861965643 -0.03964929474 0
0.399895356002 -0.0397586189139 0
0.400059245231 -0.0389555772192 0
0.399844743292 -0.0397683787053 0
0.399867234414 -0.0395497847 0
0.399906928949 -0.0394363429493 0
0.400057668549 -0.0395871905988 0
0.399837203492 -0.0398627647419 0
0.400159935203 -0.0398648481219 0
0.399999489347 -0.0394399757873 0
0.399951721209 -0.0399281503121 0
0.400151784406 -0.0397724349028 0
0.400031073111 -0.0388226947684 0
0.400128252033 -0.0395538687893 0
0.400107849723 -0.0394165371476 0
0.400026762091 -0.0396607766913 0
0.399839079107 -0.0398253529886 0
0.400157709823 -0.0398271172993 0
0.400100764036 -0.0396700566594 0
0.40012941818 -0.0397862822607 0
0.399890865707 -0.0393713066303 0
0.39988168878 -0.0397514190048 0
0.400109207994 -0.0397540224606 0
0.399915804705 -0.0397901536938 0
0.400078919657 -0.0397924086175 0
0.399965302953 -0.039024977843 0
0.400028670226 -0.0399184713813 0
0.399940962122 -0.0399528932119 0
0.399959498888 -0.0392785410714 0
0.39995728153 -0.0385957440663 0
0.400057074281 -0.0399550351576 0
0.400041875251 -0.0392763573079 0
0.399945996496 -0.0392389293612 0
0.399965813456 -0.0399149036498 0
0.399933748035 -0.0394491724545 0
0.39993066983 -0.0396387477304 0
0.399957269888 -0.0397699219537 0
0.400063860125 -0.0396392374151 0
0.400034194633 -0.0395250402289 0
0.399958881243 -0.0395264096971 0
0.399888003757 -0.0398250371748 0
0.400107133352 -0.0398274727345 0
0.400042787748 -0.0392332048949 0
0.399925155117 -0.0390409098979 0
0.400095365608 -0.0393637192887 0
0.399898440304 -0.0393573172994 0
0.399853819817 -0.0397805724106 0
0.399913882729 -0.0396303546018 0
0.400100341066 -0.0395461238291 0
0.399914119757 -0.0398705768699 0
0.400140593826 -0.0397831833561 0
0.400147186009 -0.0397659034855 0
0.400038837171 -0.0394944686558 0
0.39989447095 -0.0395554019333 0
0.399834594979 -0.0398569703707 0
0.400162183262 -0.0398592598542 0
0.399971708722 -0.0394045387963 0
0.400058235743 -0.0394523177832 0
0.3999574147 -0.0395116254392 0
0.400060812673 -0.0399537755501 0
0.399971604152 -0.0388939357538 0
0.4001332763 -0.039893882953 0
0.399865967176 -0.0398935485603 0
0.399959796059 -0.0395599977677 0
0.400031858931 -0.0395647079493 0
0.399934910246 -0.0399504434828 0
0.39986505175 -0.0397759405581 0
0.39986004045 -0.0397026531067 0
0.399864081854 -0.0398362102436 0
0.399897582763 -0.0399072529758 0
0.399863805825 -0.0396578944712 0
0.400136293226 -0.0397079438665 0
0.400107782808 -0.0398737243272 0
0.400100319335 -0.0399093366794 0
0.400136704834 -0.0398279735964 0
0.400016439629 -0.0393916355992 0
0.399890766067 -0.0398706707966 0
0.39991114034 -0.0391973621615 0
0.399992284338 -0.0399274622343 0
0.399989271165 -0.0396429451704 0
0.400093547042 -0.0394489306334 0
0.399963189548 -0.039724107692 0
0.400082678069 -0.0391880516312 0
0.400030935896 -0.0397260922155 0
0.400156707652 -0.0398557549238 0
0.400035559703 -0.0387114034835 0
0.399876558043 -0.0398082581113 0
0.400118746295 -0.039810530024 0
0.399933624639 -0.0397714973078 0
0.400060858591 -0.0397736614813 0
0.399892359954 -0.0396849412778 0
0.399847659763 -0.0397647965554 0
0.399975995535 -0.0386915377653 0
0.399952500357 -0.0397057567557 0
0.399892407689 -0.0397802386602 0
0.400102616406 -0.0397823392503 0
0.39984051372 -0.039852703443 0
0.400154431081 -0.0398097988133 0
0.400108174352 -0.0393710566662 0
0.399877090209 -0.0398395161781 0
0.400118228482 -0.0398420589435 0
0.400077097798 -0.0398881340324 0
0.399843171844 -0.0398074976957 0
0.399858011319 -0.039854211232 0
0.400137692593 -0.0398568956873 0
0.400067608611 -0.0393356343291 0
0.400040872646 -0.0390649024873 0
0.400127945972 -0.0398912492377 0
0.399869932673 -0.0398900031517 0
0.399877614743 -0.0396416042034 0
0.399950231297 -0.0389505456064 0
0.400000629528 -0.0392150559447 0
0.400012218591 -0.0386856139475 0
0.400142116076 -0.0396810491059 0
0.400117908408 -0.0396448826401 0
0.399880268497 -0.0394626473131 0
0.399920748193 -0.0390609068178 0
0.399929347649 -0.0393369777506 0
0.400140585247 -0.0397568312561 0
0.399856699102 -0.039825808348 0
0.40013908507 -0.0398280682912 0
0.400067430938 -0.0397659070101 0
0.399853866582 -0.0396809423922 0
0.399877872408 -0.0395116268715 0
0.400063364544 -0.039514176874 0
0.399924510084 -0.0397656207281 0
0.399992370779 -0.039828017598 0
0.399997668714 -0.0396503474524 0
0.399996040452 -0.0396520955079 0
0.399899189944 -0.0396803654584 0
0.400092511319 -0.0396827263443 0
0.399843830285 -0.0398724786674 0
0.400153823599 -0.0398743665613 0
0.399883874493 -0.0394073482569 0
0.400117101535 -0.0395224336307 0
0.399924581473 -0.0395203190181 0
0.400085539345 -0.0398215355941 0
0.399947212553 -0.0387605544054 0
0.400087752254 -0.0396025949883 0
0.400153149694 -0.0398585134019 0
0.399843005006 -0.0398558957186 0
0.399922630215 -0.0397215785547 0
0.400035583322 -0.0389159035814 0
0.400071898781 -0.0397235149533 0
0.399901053561 -0.0392859455416 0
0.40003602924 -0.0398514240697 0
0.400039551991 -0.0399570594482 0
0.400134599343 -0.0396610682592 0
0.399866965951 -0.0395959605117 0
0.400153563216 -0.0398419232732 0
0.399842682112 -0.039839673375 0
0.400143388169 -0.0398646230767 0
0.399853803856 -0.0398621461148 0
0.400068775181 -0.0390889989963 0
0.400122637775 -0.0397277201752 0
0.400093738624 -0.0391085366796 0
0.400004313186 -0.038428498232 0
0.400044975384 -0.0389513459306 0
0.399848978948 -0.039759448998 0
0.399873872021 -0.039731537135 0
0.399910693258 -0.0398071172849 0
0.400084118513 -0.0398094699697 0
0.400026633067 -0.0394072411322 0
0.400093266936 -0.039271869025 0
0.399967554925 -0.0384869212501 0
0.400101865558 -0.0399202224727 0
0.399862369594 -0.039800286426 0
0.400132727153 -0.0398025243403 0
0.400125561391 -0.0395728060065 0
0.399888371202 -0.0399125556966 0
0.399962427745 -0.0399595099201 0
0.400148412875 -0.0397395322846 0
0.399905662832 -0.039829114934 0
0.399908279289 -0.0392905717726 0
0.400112924197 -0.0395553764163 0
0.400129845407 -0.0396021151422 0
0.400104929903 -0.039424075132 0
0.400121329263 -0.0394882998708 0
0.399891153042 -0.0395496716863 0
0.399852238328 -0.0398290623906 0
0.399987105808 -0.0392248971678 0
0.399961532082 -0.0393409053255 0
0.399849168724 -0.039824377793 0
0.400146796799 -0.039827016307 0
0.399901027098 -0.0398195488216 0
0.400093919517 -0.0398219713072 0
0.400084303054 -0.0391500640773 0
0.400126025964 -0.0397670544038 0
0.400118926702 -0.0397590326638 0
0.40008548281 -0.0392913383028 0
0.399864672973 -0.039602208285 0
0.399937937775 -0.0393348575869 0
0.399862105336 -0.0397701754765 0
0.399856325199 -0.0398461875215 0
0.400139426171 -0.0398487274476 0
0.400012323078 -0.0399356959055 0
0.39994872109 -0.0395990560288 0
0.39995274815 -0.0396605288694 0
0.399848395625 -0.0397375346103 0
0.4000649526 -0.0393372105014 0
0.400001840774 -0.0392307610553 0
0.399858622785 -0.0397392705851 0
0.400091810153 -0.0395945743712 0
0.400039595311 -0.0399655712156 0
0.400064537154 -0.0394941111056 0
0.400041708775 -0.0396624310549 0
0.399956610393 -0.0398442963219 0
0.399946052818 -0.0389520536782 0
0.400048405608 -0.0396035841319 0
0.399969450088 -0.0392021604093 0
0.400042679358 -0.0395677331702 0
0.399926463806 -0.0394971809473 0
0.399904875376 -0.0395945881527 0
0.399950588756 -0.0395692515737 0
0.400000941843 -0.0388402123128 0
0.400029356493 -0.0391996331022 0
0.399991248839 -0.0385886959603 0
0.400160330397 -0.0398592409842 0
0.399836192913 -0.0398567624156 0
0.400089675846 -0.0393996944882 0
0.400103154692 -0.0392807951738 0
0.399985755184 -0.0399510929846 0
0.399891106527 -0.0392802511517 0
0.399904441405 -0.0394034523679 0
0.400022203441 -0.0396319998594 0
0.400000010158 -0.0396793623548 0
0.399909061269 -0.0391584406113 0
0.39997128331 -0.0396336740975 0
0.399993733313 -0.0396812078759 0
0.40014913489 -0.0398191718959 0
0.400070586705 -0.0398673329901 0
0.399980562413 -0.0393889006249 0
0.400068675635 -0.038548864108 0
0.399992987636 -0.0390582835112 0
0.400090101861 -0.0388401970086 0
0.399927498771 -0.0391430790788 0
0.40014585159 -0.0397982376157 0
0.400153024925 -0.0398506981309 0
0.399843146232 -0.039848263198 0
0.399877764467 -0.039755711628 0
0.400158111566 -0.0398407079503 0
0.399838416204 -0.0398386212526 0
0.400018674262 -0.0397283563199 0
0.399884733632 -0.0394613620416 0
0.400025373328 -0.039951253144 0
0.400004219264 -0.0386310889141 0
0.400062765548 -0.0394862612783 0
0.399955417844 -0.039755726028 0
0.400038825732 -0.0397578322093 0
0.399846162287 -0.0398122110554 0
0.400091953572 -0.0393856751716 0
0.400000256789 -0.0394568991016 0
0.399911717558 -0.039398729938 0
0.400120301229 -0.0398394656218 0
0.399938793948 -0.0390941839129 0
0.399900860145 -0.0393839403048 0
0.400002803192 -0.0390872961725 0
0.400004115476 -0.0390333027669 0
0.399841965466 -0.0397968876064 0
0.399934030219 -0.0395557639942 0
0.400044168792 -0.0388528204277 0
0.399977091354 -0.0395692799672 0
0.399923734786 -0.0394640032857 0
0.400001854614 -0.0395443149343 0
0.399943648365 -0.0397169777267 0
0.400050655465 -0.0397189246035 0
0.399991480249 -0.0395457878932 0
0.400031774377 -0.0393421817703 0
0.399955552008 -0.0388054095702 0
0.400010757849 -0.0394811072378 0
0.40015855345 -0.0398419339464 0
0.399838455252 -0.0398393784016 0
0.399963659491 -0.0399681126678 0
0.400078822385 -0.0394068248069 0
0.400154551046 -0.0397977622985 0
0.399965648137 -0.0387759707921 0
0.399900419615 -0.0389395003267 0
0.399859156553 -0.0398365252568 0
0.400136520941 -0.0398389514264 0
0.399870696561 -0.0398510057276 0
0.400124738187 -0.039853675715 0
0.400012516893 -0.0388083968906 0
0.399852421818 -0.0397441273094 0
0.400001861161 -0.0393842081185 0
0.400142126392 -0.0398514292583 0
0.400107319835 -0.0394960349007 0
0.400024248153 -0.0393105357236 0
0.400149977456 -0.0398143428679 0
0.39985382847 -0.0398583249069 0
0.40014198082 -0.039861077878 0
0.400041306204 -0.0397123608033 0
0.400117413277 -0.0396688661296 0
0.399976432854 -0.0395970595424 0
0.399865668166 -0.0398148709075 0
0.400129866626 -0.039817114868 0
0.39989555803 -0.039742201505 0
0.399968673136 -0.0391058457753 0
0.40009775721 -0.0397452687845 0
0.400101609748 -0.0393536519071 0
0.400003834915 -0.0386455024996 0
0.399855467386 -0.0396746952019 0
0.400017609303 -0.0395996123156 0
0.399921042133 -0.0397424900243 0
0.400073514669 -0.0397444686355 0
0.400088521791 -0.0397208624126 0
0.399886949839 -0.0396650088014 0
0.399962424422 -0.0399721693152 0
0.399888689744 -0.0398354717385 0
0.400106443163 -0.039838001845 0
0.399976139287 -0.038898220414 0
0.399979814678 -0.0397122952318 0
0.400014143322 -0.0397142444101 0
0.399938004506 -0.0392496677857 0
0.399901607123 -0.0392420587163 0
0.399968985135 -0.0399444347302 0
0.39991537127 -0.0396630099562 0
0.399934454639 -0.0396498230128 0
0.400142453026 -0.039738622668 0
0.400031355268 -0.0396008170239 0
0.400079016105 -0.0396668459563 0
0.400061319331 -0.0392451454176 0
0.40016048373 -0.039852069995 0
0.399836159571 -0.0398498787533 0
0.399886822832 -0.0396029677254 0
0.399884091877 -0.0397950857277 0
0.400110991037 -0.0397970226279 0
0.40012873833 -0.0396727863091 0
0.399901764565 -0.0397917795353 0
0.400092595111 -0.0397936549635 0
0.399834505897 -0.0398610110322 0
0.400162483507 -0.0398632915597 0
0.399873911422 -0.0394895554024 0
0.400047397951 -0.0398892118131 0
0.400149202615 -0.0397652126076 0
0.400051236881 -0.0396525539599 0
0.400108242562 -0.0396695374797 0
0.400066157994 -0.0391142403149 0
0.399903523914 -0.0395132876892 0
0.399881572148 -0.0391752651432 0
0.400111990424 -0.0397136661778 0
0.40015537728 -0.039816211091 0
0.399841078355 -0.0398144244889 0
0.399869889871 -0.0397530790504 0
0.399866639558 -0.0396709222781 0
0.400104566031 -0.0393529929658 0
0.399907492008 -0.0395873069892 0
0.400073524062 -0.0390615859322 0
0.400105624953 -0.0395875134157 0
0.400071117404 -0.0395464725632 0
0.399980169914 -0.0397786671435 0
0.400108099361 -0.0396103961549 0
0.400038886042 -0.0392706532466 0
0.400131663559 -0.0395854571305 0
0.400148898049 -0.039754006001 0
0.400015965833 -0.0398209893207 0
0.399868564804 -0.0395577154738 0
0.399969072394 -0.0394522936077 0
0.399947343085 -0.0398956437704 0
0.39990543015 -0.0397230027566 0
0.399870698652 -0.0395563114383 0
0.399920912243 -0.039228383565 0
0.399893013274 -0.0394995728789 0
0.399875217887 -0.0396677811141 0