# vtk DataFile Version 2.0
Generated with Solid Solver
ASCII
DATASET UNSTRUCTURED_GRID
POINTS 999 float 
0.2 4.325 0.0
1.4 4.325 0.0
1.4 4.825 0.0
0.2 4.825 0.0
1.4 4.34523264049 0.0
1.4 4.36751203886 0.0
1.4 4.39204525371 0.0
1.4 4.4190602782 0.0
1.4 4.44880817466 0.0
1.4 4.48156541084 0.0
1.4 4.51763640748 0.0
1.4 4.5573564007 0.0
1.4 4.60109451608 0.0
1.4 4.64925723872 0.0
1.4 4.70229217343 0.0
1.4 4.76069218095 0.0
1.33333333333 4.825 0.0
1.26666666667 4.825 0.0
1.2 4.825 0.0
1.13333333333 4.825 0.0
1.06666666667 4.825 0.0
1.0 4.825 0.0
0.933333333334 4.825 0.0
0.866666666668 4.825 0.0
0.800000000001 4.825 0.0
0.733333333334 4.825 0.0
0.666666666668 4.825 0.0
0.600000000001 4.825 0.0
0.533333333334 4.825 0.0
0.466666666667 4.825 0.0
0.4 4.825 0.0
0.333333333334 4.825 0.0
0.266666666667 4.825 0.0
0.2 4.76069218095 0.0
0.2 4.70229217343 0.0
0.2 4.64925723872 0.0
0.2 4.60109451608 0.0
0.2 4.5573564007 0.0
0.2 4.51763640748 0.0
0.2 4.48156541084 0.0
0.2 4.44880817466 0.0
0.2 4.4190602782 0.0
0.2 4.39204525371 0.0
0.2 4.36751203886 0.0
0.2 4.34523264049 0.0
0.212131543907 4.30926329506 0.0
0.224675715302 4.29385348652 0.0
0.23762369102 4.27878141198 0.0
0.250966423879 4.26405760374 0.0
0.264694484585 4.24969246611 0.0
0.278798324214 4.23569599189 0.0
0.293267939266 4.22207810803 0.0
0.308093289028 4.20884826442 0.0
0.323263842145 4.19601585877 0.0
0.338769084145 4.18358978512 0.0
0.354597997314 4.17157887342 0.0
0.37073960121 4.15999145532 0.0
0.387182441982 4.14883575334 0.0
0.403915091795 4.13811952025 0.0
0.420925712897 4.12785033813 0.0
0.438202430937 4.11803537461 0.0
0.455733079095 4.10868154223 0.0
0.473505374364 4.09979539439 0.0
0.491506842655 4.09138316882 0.0
0.509724826085 4.0834507802 0.0
0.528146580414 4.07600377808 0.0
0.546759103951 4.06904741762 0.0
0.56554943677 4.06258654322 0.0
0.584504260001 4.05662573401 0.0
0.60361041518 4.0511691282 0.0
0.622854334779 4.04622060039 0.0
0.642222678753 4.04178358113 0.0
0.661701681839 4.03786122392 0.0
0.681277836375 4.03445624851 0.0
0.700937245817 4.03157107217 0.0
0.720666255912 4.02920769845 0.0
0.740450894784 4.02736780161 0.0
0.76027736978 4.02605266363 0.0
0.780131702711 4.02526321235 0.0
0.799999999998 4.025 0.0
0.819868297285 4.02526321235 0.0
0.839722630216 4.02605266363 0.0
0.859549105212 4.02736780161 0.0
0.879333744085 4.02920769845 0.0
0.89906275418 4.03157107217 0.0
0.918722163621 4.03445624851 0.0
0.938298318157 4.03786122392 0.0
0.957777321244 4.04178358113 0.0
0.977145665218 4.04622060039 0.0
0.996389584817 4.0511691282 0.0
1.01549574 4.05662573401 0.0
1.03445056323 4.06258654322 0.0
1.05324089605 4.06904741762 0.0
1.07185341958 4.07600377808 0.0
1.09027517391 4.0834507802 0.0
1.10849315734 4.09138316882 0.0
1.12649462563 4.09979539439 0.0
1.1442669209 4.10868154222 0.0
1.16179756906 4.1180353746 0.0
1.1790742871 4.12785033813 0.0
1.1960849082 4.13811952024 0.0
1.21281755802 4.14883575334 0.0
1.22926039879 4.15999145532 0.0
1.24540200269 4.17157887342 0.0
1.26123091585 4.18358978512 0.0
1.27673615785 4.19601585877 0.0
1.29190671097 4.20884826442 0.0
1.30673206073 4.22207810803 0.0
1.32120167579 4.23569599189 0.0
1.33530551541 4.24969246611 0.0
1.34903357612 4.26405760374 0.0
1.36237630898 4.27878141198 0.0
1.3753242847 4.29385348652 0.0
1.38786845609 4.30926329506 0.0
1.05632730172 4.46025283906 0.0
0.549964048968 4.4630053958 0.0
0.806135520676 4.31186690218 0.0
0.603895783049 4.26079310371 0.0
1.22984770884 4.38318704125 0.0
0.3703382852 4.38423552752 0.0
0.995322815839 4.25565031136 0.0
0.728315816804 4.1765935937 0.0
0.872128173905 4.17288724072 0.0
1.14059401893 4.27298468684 0.0
0.461553191009 4.27181671009 0.0
0.784706775856 4.56821390922 0.0
0.398287125272 4.57945970538 0.0
1.20625306554 4.58334743514 0.0
0.624100842742 4.1589824436 0.0
0.5257453845 4.18811776279 0.0
0.978502430793 4.15488737058 0.0
1.07419209812 4.18825154482 0.0
0.364313698077 4.28677035763 0.0
1.23509538257 4.28681716733 0.0
0.68124123937 4.39284548972 0.0
1.31679378691 4.35012066749 0.0
0.283206213094 4.35012066749 0.0
0.791498533126 4.11467141721 0.0
0.931481076052 4.3801344917 0.0
0.966719065571 4.62778042839 0.0
0.684451667517 4.11068036752 0.0
0.618335406951 4.62686910993 0.0
0.450982331762 4.19686171732 0.0
0.915674266355 4.10995633851 0.0
1.14900051594 4.19689012964 0.0
1.30193709687 4.4481448133 0.0
0.298574667609 4.44816296922 0.0
1.05734787542 4.34990107617 0.0
0.539273225177 4.35252599628 0.0
0.709896798149 4.27721026287 0.0
0.895708916005 4.26924194389 0.0
0.813273511364 4.43835766235 0.0
0.559289631452 4.13230879113 0.0
1.04001407307 4.13281539633 0.0
0.801161810585 4.23146244955 0.0
0.665113819616 4.52056650186 0.0
0.852577362173 4.09111846388 0.0
0.390256727869 4.2242806298 0.0
1.20974450479 4.22428104599 0.0
0.921542541183 4.52778058719 0.0
1.14030889032 4.36437344809 0.0
1.15600477272 4.46808538305 0.0
0.435243219029 4.4750581257 0.0
0.462045157798 4.36654654286 0.0
0.735806812738 4.08472269746 0.0
1.30082934537 4.29793772796 0.0
0.299170654625 4.29793772796 0.0
0.533651712118 4.26265983853 0.0
0.666130919144 4.21652131559 0.0
1.0676097303 4.26179469382 0.0
1.08054433577 4.58530946155 0.0
0.506773767255 4.56568295079 0.0
0.626745312844 4.10124420826 0.0
0.933845304214 4.2106954732 0.0
0.293717639664 4.55175000185 0.0
0.312505022079 4.66426411351 0.0
1.3058164124 4.55154930624 0.0
1.29054387065 4.66302765963 0.0
0.973467966326 4.09941619478 0.0
0.487935413164 4.15087084015 0.0
0.461549079751 4.68836834982 0.0
1.11203248746 4.15093503889 0.0
1.14453515393 4.70617370303 0.0
0.840217564202 4.68891146633 0.0
0.585347033288 4.20539048534 0.0
0.619177396637 4.34227576306 0.0
0.331644410315 4.24962190462 0.0
1.26835558968 4.24962190462 0.0
1.01536156978 4.19987473052 0.0
0.809331033562 4.07065709122 0.0
0.982321540791 4.33437358971 0.0
0.725600576914 4.66999651799 0.0
0.812291456186 4.16642942492 0.0
0.335887692543 4.33918235669 0.0
1.26344844681 4.34017131907 0.0
1.23449730504 4.49457441524 0.0
1.34334172095 4.40539551957 0.0
0.256658279045 4.40539551957 0.0
0.741646926828 4.34287908527 0.0
0.674799084703 4.16673768522 0.0
1.18647435526 4.30955189749 0.0
0.360563250283 4.49596479569 0.0
0.873716483853 4.33845499203 0.0
0.418704489949 4.31146264283 0.0
0.492670911224 4.22931614809 0.0
0.403480880356 4.19046776931 0.0
1.19651541215 4.1904686246 0.0
0.728649253738 4.46214546491 0.0
1.00883674467 4.40174664879 0.0
1.11035034557 4.23161841276 0.0
0.261968539765 4.3130079512 0.0
1.33803146023 4.3130079512 0.0
0.74649980488 4.1318354354 0.0
0.927597725248 4.1577597079 0.0
0.892956618256 4.07619338913 0.0
0.659794281787 4.07951387326 0.0
0.587663534405 4.09486537006 0.0
0.942353209926 4.07935300973 0.0
1.01493747319 4.09476013719 0.0
0.613130017774 4.41369803882 0.0
0.449373501074 4.15377191978 0.0
0.514840228377 4.12225850006 0.0
0.497057592 4.41333092106 0.0
1.15061382426 4.15379293084 0.0
1.08514419473 4.12228328152 0.0
0.745617635771 4.23098957592 0.0
0.87523452213 4.59853036549 0.0
0.855262884783 4.2258970831 0.0
1.01126200032 4.53280064162 0.0
1.09391916408 4.40632408872 0.0
1.04436265455 4.71482000827 0.0
0.314320181089 4.38773968607 0.0
1.28649331902 4.38743720145 0.0
0.771211579291 4.06316862024 0.0
0.432259099658 4.24006002157 0.0
0.698583889427 4.07144353526 0.0
1.16802128371 4.238862881 0.0
1.09587629216 4.3086676659 0.0
1.35920470355 4.35666960471 0.0
0.240795296449 4.35666960471 0.0
0.504003580654 4.30815758118 0.0
0.579942709371 4.5342075073 0.0
0.875915224914 4.12815792528 0.0
0.426503136644 4.40717733008 0.0
0.57541416445 4.30365301522 0.0
0.683877978289 4.33161848113 0.0
0.888061695889 4.44633509246 0.0
0.26012287522 4.49859249103 0.0
1.33987712478 4.49859249103 0.0
0.801393572636 4.37060096582 0.0
0.558460082533 4.72496728209 0.0
1.1741923373 4.41132830101 0.0
0.83220012886 4.12779415912 0.0
1.02815069622 4.30053276509 0.0
0.948308583502 4.2880204454 0.0
0.846588933095 4.50834596945 0.0
0.343666800815 4.43485820652 0.0
1.25632767671 4.43480360053 0.0
0.97849585731 4.47031535602 0.0
1.10170977548 4.51507265998 0.0
0.662193131828 4.26809398492 0.0
0.400503668388 4.26881657105 0.0
1.20117145985 4.26130427377 0.0
0.350957892513 4.21796558019 0.0
1.24904210749 4.21796558019 0.0
0.771964652188 4.18905379403 0.0
0.932165148285 4.72736281402 0.0
0.373672364094 4.73321357765 0.0
0.760245937722 4.28409350779 0.0
0.848718469252 4.05767763075 0.0
1.23385612561 4.7358294747 0.0
0.846421485813 4.28065918421 0.0
0.651597058631 4.13043284014 0.0
0.650489852552 4.72138045504 0.0
0.58457834847 4.16375088261 0.0
0.48701309933 4.18859927013 0.0
0.708495738406 4.58856947756 0.0
1.11203398596 4.18878062515 0.0
0.54865558244 4.10250047869 0.0
1.05126102377 4.10234629471 0.0
0.300013757486 4.26259646442 0.0
1.29998624251 4.26259646442 0.0
0.9465032388 4.12718070354 0.0
0.708587583337 4.14146095907 0.0
0.973348904468 4.19537871864 0.0
0.628721855632 4.19538356945 0.0
0.380175010018 4.34021880077 0.0
0.662092932411 4.45899041267 0.0
1.05133526787 4.22221992007 0.0
0.528087045766 4.64327882187 0.0
1.22233124543 4.33521693908 0.0
1.19001193434 4.36273586668 0.0
0.853024099244 4.39544003492 0.0
0.542800296246 4.22324366905 0.0
0.247706318737 4.45239119247 0.0
1.35229368126 4.45239119247 0.0
0.599153768578 4.12953797005 0.0
1.01616570494 4.16227683178 0.0
0.744705786938 4.40569544575 0.0
1.31929001115 4.73702550052 0.0
0.777615355331 4.15113602511 0.0
1.33132411895 4.60631378639 0.0
0.265621610877 4.60975488866 0.0
0.532023338888 4.15374454388 0.0
1.0697792195 4.15241429251 0.0
0.286371037106 4.73010312914 0.0
0.497725885905 4.50153668256 0.0
0.46053455822 4.31587947599 0.0
0.433799237968 4.54629400991 0.0
0.388624781906 4.65094200004 0.0
0.554823673752 4.40451940232 0.0
1.1421595646 4.31818301431 0.0
1.14760043966 4.61655103139 0.0
1.21258698805 4.65320200685 0.0
1.16279096046 4.53292621409 0.0
0.995762647814 4.12508772517 0.0
0.456229040627 4.61456685246 0.0
0.707289391156 4.21520271873 0.0
0.763036833302 4.74285445535 0.0
0.78386198569 4.49787013126 0.0
[...]
POINT_DATA 999
VECTORS Displacement float
-0.000701310264596 -0.0792787050409 0
0.000706240413168 -0.0792748609727 0
0.0 -0.08 0
0.0 -0.08 0
0.000746017516622 -0.0792711928921 0
0.000784757817712 -0.0792656652531 0
0.000819253474525 -0.0792584722677 0
0.000847619650902 -0.0792530640136 0
0.000862508550385 -0.0792515500717 0
0.000868970787855 -0.0792561041789 0
0.000854492439133 -0.0792687133875 0
0.000816890264245 -0.0792917663092 0
0.000752505739055 -0.0793345180524 0
0.000650231448156 -0.0794031728396 0
0.000505764838716 -0.0795126778656 0
0.000302191374037 -0.079687165985 0
0.0 -0.08 0
0.0 -0.08 0
0.0 -0.08 0
0.0 -0.08 0
0.0 -0.08 0
0.0 -0.08 0
0.0 -0.08 0
0.0 -0.08 0
0.0 -0.08 0
0.0 -0.08 0
0.0 -0.08 0
0.0 -0.08 0
0.0 -0.08 0
0.0 -0.08 0
0.0 -0.08 0
0.0 -0.08 0
0.0 -0.08 0
-0.000299292227162 -0.0796901202006 0
-0.000502132674109 -0.079516807949 0
-0.000651867090816 -0.0794068682258 0
-0.000750509824775 -0.0793372990693 0
-0.000813778827494 -0.0792944690843 0
-0.000851341366135 -0.0792715845674 0
-0.000865530592532 -0.079259442868 0
-0.000858675661038 -0.0792551465694 0
-0.00084343883487 -0.0792568042172 0
-0.000814802249961 -0.0792622817671 0
-0.000780096959873 -0.0792694974706 0
-0.0007412020938 -0.0792750348551 0
-0.000668546726803 -0.0792582562802 0
-0.000632522428095 -0.0792360509632 0
-0.000593377566256 -0.0792103628 0
-0.000550456547461 -0.0791811110867 0
-0.000504137830173 -0.0791471012753 0
-0.000455575554423 -0.0791074913501 0
-0.000404436378233 -0.0790630095938 0
-0.000348972042945 -0.0790130634702 0
-0.000290364038257 -0.0789543801565 0
-0.000230868227091 -0.0788913003755 0
-0.000168191576586 -0.0788200370388 0
-0.000101346338318 -0.0787409412256 0
-3.33818846292e-05 -0.0786518725106 0
3.77670340698e-05 -0.0785539379326 0
0.000111255951702 -0.0784457917642 0
0.00018803897455 -0.0783254964572 0
0.000265845454651 -0.0781917809702 0
0.000349170211901 -0.0780439320144 0
0.00043250139611 -0.0778784544098 0
0.000521986419074 -0.0776918894856 0
0.000609834239904 -0.07748251865 0
0.000709114218669 -0.0772433823214 0
0.000804198776963 -0.0769649757473 0
0.000912832782362 -0.0766395310749 0
0.0010395811422 -0.0761005131045 0
0.00109453729369 -0.075586790466 0
0.0010948146517 -0.0751152282009 0
0.00104790267424 -0.0746861139296 0
0.000972198027006 -0.07431807872 0
0.000858420158953 -0.0739919614406 0
0.000724225614064 -0.0737283310377 0
0.000560959801332 -0.0735147057094 0
0.000390455685375 -0.0733646014463 0
0.000210370315704 -0.0732764543281 0
1.12272584742e-05 -0.0732418448659 0
-0.000187603774956 -0.0732704244853 0
-0.000377050683795 -0.0733620124081 0
-0.000551609402392 -0.0735106865477 0
-0.000709919744608 -0.0737196194113 0
-0.000846868858173 -0.0739853595452 0
-0.000964752323792 -0.0743098628463 0
-0.00104877564219 -0.074689988286 0
-0.00108630544814 -0.0751077391692 0
-0.00108712738797 -0.0755727287718 0
-0.00103158349751 -0.0760934586326 0
-0.000909593547005 -0.0766279406926 0
-0.00080050916837 -0.0769573352565 0
-0.000704098024728 -0.0772359128536 0
-0.000604791281412 -0.0774755546753 0
-0.000516575623114 -0.0776858360729 0
-0.000427082941023 -0.0778728166442 0
-0.000343783714367 -0.0780386470563 0
-0.000260425929436 -0.0781867986859 0
-0.000182613342246 -0.0783207321001 0
-0.000105830724723 -0.0784412115408 0
-3.23553368966e-05 -0.0785495131866 0
3.87687781647e-05 -0.0786475892663 0
0.000106701914436 -0.0787368042045 0
0.000173534796327 -0.0788160464863 0
0.000236211616741 -0.078887439424 0
0.0002957246867 -0.0789506214288 0
0.000354338536757 -0.0790093717457 0
0.000409781998974 -0.0790593350203 0
0.00046087816285 -0.0791038268197 0
0.000509396109372 -0.0791434368366 0
0.000555663538236 -0.0791774311172 0
0.000598523792706 -0.0792066564807 0
0.000637601857314 -0.0792323124431 0
0.000673557352911 -0.0792544730197 0
0.00066352217057 -0.0784486214646 0
-0.000648570410292 -0.0784407666845 0
2.29165004634e-05 -0.0765489569544 0
-0.000540789340982 -0.077075624731 0
0.000797527352602 -0.0788822103065 0
-0.000793234001291 -0.0788862937721 0
0.000538121663755 -0.0770321291698 0
-0.000167266231257 -0.0752949235572 0
0.000164304908885 -0.0752545667745 0
0.000611354544591 -0.0782697060568 0
-0.000603608673861 -0.0782570190562 0
-3.71868646107e-05 -0.0786010349004 0
-0.000677430120026 -0.0792736507822 0
0.000675107905458 -0.079290356856 0
-0.000240447957622 -0.0762508696022 0
-0.000328052645427 -0.0775801504324 0
0.000222255572789 -0.0762609330679 0
0.000335363907081 -0.07757301092 0
-0.000622396345152 -0.0788031831267 0
0.000627380174521 -0.0787966490761 0
-0.000399126806341 -0.0775131025213 0
0.000758243780155 -0.0791054368173 0
-0.000753441280712 -0.0791088651635 0
7.25794889663e-06 -0.0742944647207 0
0.000441857901589 -0.0774660452326 0
0.000323807855731 -0.0790860456831 0
6.55078328192e-05 -0.0750067406484 0
-0.000350401670156 -0.079101403045 0
-0.000317730017738 -0.0782464762907 0
-6.31997873448e-05 -0.0749942728535 0
0.000323786565026 -0.0782416555648 0
0.00084831821967 -0.0791534973835 0
-0.000844310207059 -0.0791558740305 0
0.000688480465064 -0.077957257226 0
-0.000688296250068 -0.0779919537093 0
-0.000317943667042 -0.0764333397203 0
0.000335732238642 -0.0763869547536 0
4.6658026146e-05 -0.0776663003483 0
-1.25713794479e-05 -0.0770917643527 0
2.46216704901e-05 -0.0770746364755 0
4.58907406085e-06 -0.0757026420448 0
-0.000367213418942 -0.0784226368727 0
-0.000108306971934 -0.0741642995783 0
-0.000418632990202 -0.0786453039978 0
0.000423955704352 -0.0786412803204 0
0.000329947475544 -0.0784407276735 0
0.000756180096102 -0.0784691593618 0
0.000769814774508 -0.0788324052458 0
-0.000771603699781 -0.078882079822 0
-0.000751461664837 -0.0784657027305 0
0.000173176077746 -0.0741757732391 0
0.000649050053656 -0.0790439705781 0
-0.000643982388761 -0.0790475193764 0
-0.000587654485292 -0.0776940986334 0
-0.000376421143285 -0.076197163303 0
0.000590211222524 -0.0776976663256 0
0.000552316100046 -0.0790716880136 0
-0.000596247869584 -0.0790178798743 0
0.000180521927369 -0.0758510591473 0
0.00036927896846 -0.0761429276201 0
-0.000784443918946 -0.0793183842397 0
-0.000541602453603 -0.0795661557315 0
0.000787726607462 -0.079315737627 0
0.000549277297915 -0.0795615348137 0
-0.000195363594587 -0.0758325078686 0
-7.23020990998e-05 -0.0779186404993 0
-0.000397154275933 -0.0795499307828 0
7.85852746214e-05 -0.0779129844778 0
0.000358554369673 -0.0796167792844 0
6.33955870414e-05 -0.0793296478673 0
-0.000431081585585 -0.0769790167463 0
-0.000567166027996 -0.0774585521287 0
-0.000503112188908 -0.0789234541031 0
0.000508396389182 -0.0789197660961 0
0.000416466019675 -0.0769547997275 0
-3.37515777163e-05 -0.0737521001155 0
0.000571136940414 -0.0774162480335 0
-0.000127132546383 -0.0792380234075 0
2.7541529859e-05 -0.0749433534531 0
-0.000736601937329 -0.0789509788973 0
0.000743021714599 -0.0789461441186 0
0.000806711428814 -0.0791086906142 0
0.000832291283067 -0.0791840219856 0
-0.000827992869013 -0.0791874342472 0
-0.000212923499686 -0.0769179297074 0
-0.000234493396843 -0.075669604742 0
0.000688650813381 -0.078590556727 0
-0.000807076371829 -0.0791239014257 0
0.000270838250652 -0.0769205696609 0
-0.00068820103428 -0.0785712692382 0
-0.000483841822046 -0.0779556378902 0
-0.000266714719522 -0.0785603517451 0
0.000272205556372 -0.0785558541568 0
-0.000223801559028 -0.0779093799827 0
0.000614571259456 -0.0779514713614 0
0.000495998257064 -0.0779791018489 0
-0.000678080807313 -0.0791516489611 0
0.000683052273786 -0.0791480422494 0
-2.93754687826e-05 -0.0746620404348 0
0.000210622425513 -0.0756076684745 0
-0.000306552758609 -0.07435350461 0
0.0003971041571 -0.0750750009251 0
0.000303549392793 -0.0765828260514 0
-0.000394498614956 -0.0751074125977 0
-0.000302709445772 -0.0766227585598 0
-0.000562138835636 -0.0779255732715 0
-6.9266370101e-05 -0.0782442700458 0
0.0001289322028 -0.0776408058983 0
-0.000739574310578 -0.0784485055404 0
7.50071420398e-05 -0.0782392818716 0
-0.000123199301811 -0.0776342595861 0
-0.000181055125523 -0.0758068707651 0
0.000172375146876 -0.0788214765509 0
0.000185225297242 -0.075753170886 0
0.000515200614427 -0.0786702023 0
0.000733786574476 -0.0783782694308 0
0.000273685759621 -0.0795747988291 0
-0.000804686541199 -0.0790574061206 0
0.000808981836077 -0.0790559215465 0
0.000144594697235 -0.073716054819 0
-0.000494534628332 -0.0784083142072 0
0.000389124264424 -0.0744124909291 0
0.000494822695856 -0.0784043817959 0
0.000679062040577 -0.0780510379119 0
0.00076920541282 -0.0791969484428 0
-0.000764475314898 -0.0792005441614 0
-0.000674464381899 -0.0780551714813 0
-0.000526598603328 -0.078702140572 0
3.7325683696e-05 -0.0747704623052 0
-0.000789802484127 -0.0787266640391 0
-0.000621197840058 -0.0775318279681 0
-0.000404970671457 -0.0770315642253 0
0.000286207853853 -0.077820986007 0
-0.000846687817825 -0.079257126518 0
0.000849428033021 -0.0792544768669 0
6.6638966646e-06 -0.0770956381311 0
-0.000248765888651 -0.0796132618766 0
0.000793737833673 -0.0787378287402 0
1.65156912556e-05 -0.0745074459778 0
0.000626305819272 -0.0775381348474 0
0.000484023059314 -0.0768746968639 0
0.0001383122235 -0.0782092032898 0
-0.000828488993354 -0.079043855373 0
0.000832500591121 -0.07904072255 0
0.000509566979759 -0.0782296911145 0
0.00067347983855 -0.0788324834748 0
-0.000444553104407 -0.0766523558607 0
-0.000578779155983 -0.0786164987958 0
0.00056047387889 -0.0786154534742 0
-0.000385490423096 -0.0788377714423 0
0.000390904556891 -0.0788339048916 0
-7.47182982653e-05 -0.0752436647851 0
0.000148992974345 -0.0795631415307 0
-0.00030922565917 -0.0797447835998 0
-0.00014668374924 -0.0763174557501 0
-0.000259564348197 -0.0737510819588 0
0.000302662255804 -0.0797535760237 0
0.000172286130365 -0.0762985046971 0
-7.20562545466e-05 -0.0756478829156 0
-0.000174364257514 -0.0795445115044 0
-0.000251432066205 -0.0768202049815 0
-0.000299974028559 -0.077950114997 0
-0.000211722188179 -0.0787778665778 0
0.000307758175857 -0.0779373850706 0
0.000288052954924 -0.0772202710366 0
-0.000282035955007 -0.077211189586 0
-0.000544254773114 -0.0790400056612 0
0.000549488112503 -0.0790363669023 0
5.46815943766e-05 -0.0755883458891 0
-9.47549289484e-05 -0.0750644560459 0
0.000386820036656 -0.0764460517895 0
-0.000380391526414 -0.0764275486338 0
-0.000737957664384 -0.0787878895098 0
-0.000415644570949 -0.0780364138668 0
0.00048543863508 -0.0774235718886 0
-0.000441438344228 -0.0793018147194 0
0.000734815538483 -0.0787878567172 0
0.00076901358698 -0.078694551134 0
0.000188590712655 -0.0773573737006 0
-0.00048232465914 -0.0774910383551 0
-0.000856583805594 -0.0792256409827 0
0.000860271105271 -0.0792223623789 0
-4.39635878153e-05 -0.0764807634246 0
0.000250107925254 -0.0768193779811 0
-0.000190689637045 -0.0774457252832 0
0.000324416456822 -0.0797472520957 0
-3.15131632701e-05 -0.0747708803069 0
0.000709413610482 -0.0794174620477 0
-0.000702232316794 -0.0794258769211 0
-0.000136229233132 -0.0774639639082 0
0.000131205986497 -0.0774760082984 0
-0.000342695146912 -0.079733091739 0
-0.000686495928949 -0.0787826944411 0
-0.000694463555064 -0.0783489175278 0
-0.000701048063942 -0.0791082256469 0
-0.000533916333146 -0.0794964187318 0
-0.000670500864442 -0.0781430527619 0
0.000703457156845 -0.0783656909955 0
0.00056660462243 -0.0793094949814 0
0.000530653408832 -0.0795024979296 0
0.000717824198353 -0.0790550175954 0
2.17651990393e-05 -0.0763698151813 0
-0.000564804662113 -0.0792982922216 0
-0.000280583372949 -0.075852452415 0
-3.83575418244e-05 -0.079613179085 0
-4.65474931807e-05 -0.0781193916313 0
0.000432410663827 -0.0770839188375 0
-0.000114503121279 -0.0784514720678 0
0.000276097665506 -0.0757997575541 0
0.000120083710265 -0.0784468586239 0
0.00083052308256 -0.0792027819572 0
0.000342131000566 -0.0739192067891 0
-0.000609648147795 -0.0789435491501 0
0.0006147455311 -0.0789399335829 0
-0.000283635860459 -0.0787291972904 0
0.000289035549031 -0.0787250830869 0
-0.000531245818994 -0.0783112274698 0
-0.000771926720736 -0.0787024396913 0
6.94215487015e-05 -0.074104840359 0
-0.000231756711194 -0.0784413217159 0
-0.000518959926514 -0.0787813414415 0
0.000524284403303 -0.0787771657263 0
-0.000827296548003 -0.0791977669349 0
0.000812333176524 -0.0789467105803 0
0.000460883717516 -0.0765995277477 0
-0.000606797939907 -0.0791239537816 0
0.000611927676542 -0.0791203315508 0
0.000403059007622 -0.0793930538913 0
-0.000805578549016 -0.0789454057086 0
-0.000716820944354 -0.0792097736637 0
0.000721708576053 -0.0792061128542 0
0.000479553029026 -0.0758191323759 0
0.000117243839123 -0.075380125246 0
0.000678673954157 -0.0794015603604 0
-0.000678906838247 -0.0794028757414 0
-0.000589453537224 -0.0779937710329 0
7.48652230653e-05 -0.0746413520367 0
1.21774767185e-05 -0.0760433127278 0
-3.03919558738e-05 -0.0741221608392 0
0.000728347365114 -0.0782310746497 0
0.000597175499768 -0.0779989211905 0
-0.000531238857613 -0.0771085608874 0
-0.000522905717213 -0.0745110845633 0
-0.000449942216793 -0.0758178319305 0
0.000729955735719 -0.0786659576044 0
-0.000723823931422 -0.0790453193917 0
0.000728816370027 -0.0790416867108 0
0.000346653210414 -0.0787486899304 0
-0.000724845314067 -0.0782417372351 0
-0.000554067167269 -0.0772888602349 0
0.000291087179368 -0.0771925225869 0
-0.000377906538756 -0.0787488115609 0
-3.5728451045e-05 -0.0790863572208 0
8.29655747366e-05 -0.0780105926154 0
-7.70611209063e-05 -0.0780051273153 0
-0.000476828604856 -0.0782033743869 0
0.000465729670717 -0.0782008721174 0
-0.000815150140521 -0.079311404141 0
0.00081810284249 -0.0793087435516 0
-0.00048197793395 -0.0767559360614 0
0.000561760625446 -0.0773332701266 0
-0.000316324240511 -0.0772518672731 0
0.000443797110984 -0.0790373985407 0
-0.000380430740872 -0.0739602888418 0
0.000435818808813 -0.0778843247533 0
0.000808719824781 -0.0792165399778 0
-0.000804197729011 -0.0792201344979 0
-0.000346954618939 -0.0784387664091 0
-0.000102619150922 -0.0745117423593 0
0.000352561447445 -0.078434132992 0
-0.000363677565162 -0.0762518513999 0
0.000186877088827 -0.0792068552012 0
0.000207617226777 -0.0797665215507 0
0.000683518841777 -0.0781474148755 0
-0.000638289570922 -0.0778080524977 0
0.000810334133437 -0.0791220994012 0
-0.000805806433402 -0.0791254914228 0
0.000758872914947 -0.0792536085461 0
-0.000759532767855 -0.0792492635343 0
0.000101297779973 -0.0751641079648 0
0.000632593820973 -0.0784686490467 0
0.000615396615603 -0.0746211487583 0
4.60796807198e-05 -0.0735103639712 0
8.08643548254e-05 -0.0749216243922 0
-0.000767352800098 -0.0786831501457 0
-0.000621287909629 -0.0785043981964 0
-0.000414547162195 -0.0789360228372 0
0.000419931210382 -0.078932276675 0
0.000126698550628 -0.076931311445 0
0.000357147525489 -0.0761694229778 0
-0.000152633881463 -0.0735992641328 0
0.000543431951561 -0.0795637423552 0
-0.000690421700689 -0.078898681962 0
0.000692464973048 -0.0788957159057 0
0.000617808762628 -0.0776787841272 0
-0.000586502561026 -0.0795294964375 0
-0.000195095183937 -0.0797812639925 0
0.000770896677203 -0.0785578296159 0
-0.000481441360103 -0.0790795853794 0
-0.000290067448074 -0.0760579814217 0
0.000550829470836 -0.0776106086095 0
0.000648820789359 -0.0777841487188 0
0.000463672237417 -0.0767856195953 0
0.000570829011139 -0.0772096166394 0
-0.000509460414447 -0.0775982024638 0
-0.000762333746802 -0.07906693346 0
0.00013407923968 -0.0754196832443 0
-6.4467425354e-05 -0.0761226053829 0
-0.000767299140808 -0.079037428214 0
0.000771817466304 -0.0790366023886 0
-0.000469747015192 -0.0790080527922 0
0.000475053578617 -0.0790043808336 0
0.000237976481774 -0.0755496853451 0
0.00065385676161 -0.078692938604 0
0.000614468533136 -0.0786917573983 0
0.000296096389138 -0.0760535586176 0
-0.000648954375497 -0.0777982222964 0
-0.000245754135579 -0.0765667448408 0
-0.000690218925702 -0.0787270995145 0
-0.000726448448219 -0.0791631146673 0
0.000731301973882 -0.0791595585688 0
6.43367041158e-05 -0.0796564189811 0
-0.000198718840812 -0.0777064850292 0
-0.000176491490406 -0.0780751326878 0
-0.000765349459216 -0.0785577179946 0
0.000278704871499 -0.0765658142206 0
-0.000143772173694 -0.0754190064607 0
-0.000713691994198 -0.0785804464159 0
0.000452845726529 -0.0776904464608 0
0.000209043788387 -0.0798119377458 0
0.000466536966669 -0.0770082362375 0
0.000184311958843 -0.078070579104 0
-0.000218825642763 -0.0791696303266 0
-7.87285404351e-05 -0.0749249426025 0
0.00022223693889 -0.0777189102472 0
-9.80603577074e-05 -0.0759787247133 0
0.000344357848549 -0.0774960763193 0
-0.000475174939775 -0.0770097681708 0
-0.000435873272983 -0.0777037995243 0
-0.000338282158981 -0.0774892015075 0
7.23219100877e-06 -0.0746060742705 0
0.000113818159244 -0.0759608921979 0
4.45732904138e-05 -0.0738877338324 0
0.000849388504812 -0.0792217486373 0
-0.000845306541853 -0.0792251896954 0
0.000595274150633 -0.0762660563469 0
0.00068273234438 -0.075379178679 0
-7.24404304507e-05 -0.0797385488629 0
-0.000668572151279 -0.0753625954754 0
-0.00058152155061 -0.0762764279927 0
0.000227130023844 -0.0778982093133 0
9.82333641055e-05 -0.0781854002444 0
-0.000246912553181 -0.0756131261157 0
-0.000221403636326 -0.0778924941804 0
-9.25746907119e-05 -0.0781803358761 0
0.000784630382131 -0.0790019065734 0
0.000367379415995 -0.0792841406858 0
-7.49981804997e-05 -0.0768452212493 0
0.000330730436175 -0.0736361461185 0
-0.000263470694492 -0.0747123222791 0
0.000540588034817 -0.0740097480504 0
-0.000104881485564 -0.075336133749 0
0.00076484398535 -0.0788740646464 0
0.000807726215135 -0.0791719475312 0
-0.000803196282109 -0.0791754124798 0
-0.000617268078017 -0.0786798970894 0
0.000835738277455 -0.0791160746145 0
-0.000831548876364 -0.0791192677746 0
9.85628424663e-05 -0.078561833009 0
-0.000499707452596 -0.0770060987839 0
0.000132089131215 -0.0797377770181 0
-0.000110522106699 -0.0739264379159 0
0.000299174486227 -0.0773036364082 0
-0.000158566053497 -0.0786369745736 0
0.000163997125295 -0.07863267326 0
-0.000784188336136 -0.0789683161137 0
0.00040446576214 -0.0767611502813 0
-4.26108153496e-05 -0.0767666705668 0
-0.000335402723312 -0.0765852331271 0
0.000630379984187 -0.0791223639346 0
-0.000160238760934 -0.0754822521324 0
-0.000412196035834 -0.0767525290148 0
0.000276702797213 -0.0748076449078 0
1.96440826226e-05 -0.0752871783471 0
-0.00080879463363 -0.0788842778732 0
-0.000306560217624 -0.0776606589833 0
5.80043244015e-07 -0.0745192453684 0
-0.000102280070791 -0.0777409452739 0
-0.000337519450903 -0.0771889330557 0
9.87934568932e-05 -0.077350599909 0
-0.000227242773581 -0.0784101539079 0
0.000232960182582 -0.07840548979 0
-9.26374791305e-05 -0.0773431588507 0
0.000142173793012 -0.076615123216 0
5.3275646635e-05 -0.074358550483 0
0.000142850125217 -0.0769328793008 0
0.000838737702325 -0.0791246620861 0
-0.000835085135973 -0.0791229836967 0
-0.000189745104019 -0.0798273705184 0
0.000329732094222 -0.0766057934213 0
0.000812026609549 -0.0788769487629 0
1.30032648653e-05 -0.0743674326041 0
-0.000560751524839 -0.0741732208109 0
-0.000709914034903 -0.0791070537491 0
0.000714762033299 -0.0791035294435 0
-0.000643560850302 -0.0791907450803 0
0.000648619113173 -0.0791870745162 0
-0.00018178467886 -0.0742140636455 0
-0.00074232541716 -0.0785841905926 0
0.000111029138853 -0.0762938422714 0
0.000750293778239 -0.0791812137452 0
0.000504538846397 -0.0771639112452 0
1.60218661287e-05 -0.075915065384 0
0.000788699154563 -0.0789656498449 0
-0.000741126293555 -0.0792339354456 0
0.000745938820845 -0.0792302273903 0
0.000212115193393 -0.0784748135323 0
0.000595218200037 -0.0782105920987 0
-4.30708662262e-05 -0.077686999588 0
-0.000672046378908 -0.0789820831949 0
0.000677074112219 -0.0789784263979 0
-0.000500275853523 -0.0785615199295 0
-8.34066654819e-05 -0.0755674731535 0
0.000496872987038 -0.078563412191 0
0.000429953361911 -0.0765596850978 0
0.000205918773241 -0.0738960629818 0
-0.000716229544316 -0.0782212175244 0
5.10860706709e-05 -0.0776866669487 0
-0.000355978168345 -0.078560881674 0
0.000361356766361 -0.0785562825318 0
0.000452156220602 -0.078504030466 0
-0.000542824255099 -0.0781201276979 0
-0.000197890526486 -0.0798498206188 0
-0.000540262628099 -0.0791003241347 0