# vtk DataFile Version 2.0
Generated with Solid Solver
ASCII
DATASET UNSTRUCTURED_GRID
POINTS 999 float 
0.2 4.325 0.0
1.4 4.325 0.0
1.4 4.825 0.0
0.2 4.825 0.0
1.4 4.34523264049 0.0
1.4 4.36751203886 0.0
1.4 4.39204525371 0.0
1.4 4.4190602782 0.0
1.4 4.44880817466 0.0
1.4 4.48156541084 0.0
1.4 4.51763640748 0.0
1.4 4.5573564007 0.0
1.4 4.60109451608 0.0
1.4 4.64925723872 0.0
1.4 4.70229217343 0.0
1.4 4.76069218095 0.0
1.33333333333 4.825 0.0
1.26666666667 4.825 0.0
1.2 4.825 0.0
1.13333333333 4.825 0.0
1.06666666667 4.825 0.0
1.0 4.825 0.0
0.933333333334 4.825 0.0
0.866666666668 4.825 0.0
0.800000000001 4.825 0.0
0.733333333334 4.825 0.0
0.666666666668 4.825 0.0
0.600000000001 4.825 0.0
0.533333333334 4.825 0.0
0.466666666667 4.825 0.0
0.4 4.825 0.0
0.333333333334 4.825 0.0
0.266666666667 4.825 0.0
0.2 4.76069218095 0.0
0.2 4.70229217343 0.0
0.2 4.64925723872 0.0
0.2 4.60109451608 0.0
0.2 4.5573564007 0.0
0.2 4.51763640748 0.0
0.2 4.48156541084 0.0
0.2 4.44880817466 0.0
0.2 4.4190602782 0.0
0.2 4.39204525371 0.0
0.2 4.36751203886 0.0
0.2 4.34523264049 0.0
0.212131543907 4.30926329506 0.0
0.224675715302 4.29385348652 0.0
0.23762369102 4.27878141198 0.0
0.250966423879 4.26405760374 0.0
0.264694484585 4.24969246611 0.0
0.278798324214 4.23569599189 0.0
0.293267939266 4.22207810803 0.0
0.308093289028 4.20884826442 0.0
0.323263842145 4.19601585877 0.0
0.338769084145 4.18358978512 0.0
0.354597997314 4.17157887342 0.0
0.37073960121 4.15999145532 0.0
0.387182441982 4.14883575334 0.0
0.403915091795 4.13811952025 0.0
0.420925712897 4.12785033813 0.0
0.438202430937 4.11803537461 0.0
0.455733079095 4.10868154223 0.0
0.473505374364 4.09979539439 0.0
0.491506842655 4.09138316882 0.0
0.509724826085 4.0834507802 0.0
0.528146580414 4.07600377808 0.0
0.546759103951 4.06904741762 0.0
0.56554943677 4.06258654322 0.0
0.584504260001 4.05662573401 0.0
0.60361041518 4.0511691282 0.0
0.622854334779 4.04622060039 0.0
0.642222678753 4.04178358113 0.0
0.661701681839 4.03786122392 0.0
0.681277836375 4.03445624851 0.0
0.700937245817 4.03157107217 0.0
0.720666255912 4.02920769845 0.0
0.740450894784 4.02736780161 0.0
0.76027736978 4.02605266363 0.0
0.780131702711 4.02526321235 0.0
0.799999999998 4.025 0.0
0.819868297285 4.02526321235 0.0
0.839722630216 4.02605266363 0.0
0.859549105212 4.02736780161 0.0
0.879333744085 4.02920769845 0.0
0.89906275418 4.03157107217 0.0
0.918722163621 4.03445624851 0.0
0.938298318157 4.03786122392 0.0
0.957777321244 4.04178358113 0.0
0.977145665218 4.04622060039 0.0
0.996389584817 4.0511691282 0.0
1.01549574 4.05662573401 0.0
1.03445056323 4.06258654322 0.0
1.05324089605 4.06904741762 0.0
1.07185341958 4.07600377808 0.0
1.09027517391 4.0834507802 0.0
1.10849315734 4.09138316882 0.0
1.12649462563 4.09979539439 0.0
1.1442669209 4.10868154222 0.0
1.16179756906 4.1180353746 0.0
1.1790742871 4.12785033813 0.0
1.1960849082 4.13811952024 0.0
1.21281755802 4.14883575334 0.0
1.22926039879 4.15999145532 0.0
1.24540200269 4.17157887342 0.0
1.26123091585 4.18358978512 0.0
1.27673615785 4.19601585877 0.0
1.29190671097 4.20884826442 0.0
1.30673206073 4.22207810803 0.0
1.32120167579 4.23569599189 0.0
1.33530551541 4.24969246611 0.0
1.34903357612 4.26405760374 0.0
1.36237630898 4.27878141198 0.0
1.3753242847 4.29385348652 0.0
1.38786845609 4.30926329506 0.0
1.05632730172 4.46025283906 0.0
0.549964048968 4.4630053958 0.0
0.806135520676 4.31186690218 0.0
0.603895783049 4.26079310371 0.0
1.22984770884 4.38318704125 0.0
0.3703382852 4.38423552752 0.0
0.995322815839 4.25565031136 0.0
0.728315816804 4.1765935937 0.0
0.872128173905 4.17288724072 0.0
1.14059401893 4.27298468684 0.0
0.461553191009 4.27181671009 0.0
0.784706775856 4.56821390922 0.0
0.398287125272 4.57945970538 0.0
1.20625306554 4.58334743514 0.0
0.624100842742 4.1589824436 0.0
0.5257453845 4.18811776279 0.0
0.978502430793 4.15488737058 0.0
1.07419209812 4.18825154482 0.0
0.364313698077 4.28677035763 0.0
1.23509538257 4.28681716733 0.0
0.68124123937 4.39284548972 0.0
1.31679378691 4.35012066749 0.0
0.283206213094 4.35012066749 0.0
0.791498533126 4.11467141721 0.0
0.931481076052 4.3801344917 0.0
0.966719065571 4.62778042839 0.0
0.684451667517 4.11068036752 0.0
0.618335406951 4.62686910993 0.0
0.450982331762 4.19686171732 0.0
0.915674266355 4.10995633851 0.0
1.14900051594 4.19689012964 0.0
1.30193709687 4.4481448133 0.0
0.298574667609 4.44816296922 0.0
1.05734787542 4.34990107617 0.0
0.539273225177 4.35252599628 0.0
0.709896798149 4.27721026287 0.0
0.895708916005 4.26924194389 0.0
0.813273511364 4.43835766235 0.0
0.559289631452 4.13230879113 0.0
1.04001407307 4.13281539633 0.0
0.801161810585 4.23146244955 0.0
0.665113819616 4.52056650186 0.0
0.852577362173 4.09111846388 0.0
0.390256727869 4.2242806298 0.0
1.20974450479 4.22428104599 0.0
0.921542541183 4.52778058719 0.0
1.14030889032 4.36437344809 0.0
1.15600477272 4.46808538305 0.0
0.435243219029 4.4750581257 0.0
0.462045157798 4.36654654286 0.0
0.735806812738 4.08472269746 0.0
1.30082934537 4.29793772796 0.0
0.299170654625 4.29793772796 0.0
0.533651712118 4.26265983853 0.0
0.666130919144 4.21652131559 0.0
1.0676097303 4.26179469382 0.0
1.08054433577 4.58530946155 0.0
0.506773767255 4.56568295079 0.0
0.626745312844 4.10124420826 0.0
0.933845304214 4.2106954732 0.0
0.293717639664 4.55175000185 0.0
0.312505022079 4.66426411351 0.0
1.3058164124 4.55154930624 0.0
1.29054387065 4.66302765963 0.0
0.973467966326 4.09941619478 0.0
0.487935413164 4.15087084015 0.0
0.461549079751 4.68836834982 0.0
1.11203248746 4.15093503889 0.0
1.14453515393 4.70617370303 0.0
0.840217564202 4.68891146633 0.0
0.585347033288 4.20539048534 0.0
0.619177396637 4.34227576306 0.0
0.331644410315 4.24962190462 0.0
1.26835558968 4.24962190462 0.0
1.01536156978 4.19987473052 0.0
0.809331033562 4.07065709122 0.0
0.982321540791 4.33437358971 0.0
0.725600576914 4.66999651799 0.0
0.812291456186 4.16642942492 0.0
0.335887692543 4.33918235669 0.0
1.26344844681 4.34017131907 0.0
1.23449730504 4.49457441524 0.0
1.34334172095 4.40539551957 0.0
0.256658279045 4.40539551957 0.0
0.741646926828 4.34287908527 0.0
0.674799084703 4.16673768522 0.0
1.18647435526 4.30955189749 0.0
0.360563250283 4.49596479569 0.0
0.873716483853 4.33845499203 0.0
0.418704489949 4.31146264283 0.0
0.492670911224 4.22931614809 0.0
0.403480880356 4.19046776931 0.0
1.19651541215 4.1904686246 0.0
0.728649253738 4.46214546491 0.0
1.00883674467 4.40174664879 0.0
1.11035034557 4.23161841276 0.0
0.261968539765 4.3130079512 0.0
1.33803146023 4.3130079512 0.0
0.74649980488 4.1318354354 0.0
0.927597725248 4.1577597079 0.0
0.892956618256 4.07619338913 0.0
0.659794281787 4.07951387326 0.0
0.587663534405 4.09486537006 0.0
0.942353209926 4.07935300973 0.0
1.01493747319 4.09476013719 0.0
0.613130017774 4.41369803882 0.0
0.449373501074 4.15377191978 0.0
0.514840228377 4.12225850006 0.0
0.497057592 4.41333092106 0.0
1.15061382426 4.15379293084 0.0
1.08514419473 4.12228328152 0.0
0.745617635771 4.23098957592 0.0
0.87523452213 4.59853036549 0.0
0.855262884783 4.2258970831 0.0
1.01126200032 4.53280064162 0.0
1.09391916408 4.40632408872 0.0
1.04436265455 4.71482000827 0.0
0.314320181089 4.38773968607 0.0
1.28649331902 4.38743720145 0.0
0.771211579291 4.06316862024 0.0
0.432259099658 4.24006002157 0.0
0.698583889427 4.07144353526 0.0
1.16802128371 4.238862881 0.0
1.09587629216 4.3086676659 0.0
1.35920470355 4.35666960471 0.0
0.240795296449 4.35666960471 0.0
0.504003580654 4.30815758118 0.0
0.579942709371 4.5342075073 0.0
0.875915224914 4.12815792528 0.0
0.426503136644 4.40717733008 0.0
0.57541416445 4.30365301522 0.0
0.683877978289 4.33161848113 0.0
0.888061695889 4.44633509246 0.0
0.26012287522 4.49859249103 0.0
1.33987712478 4.49859249103 0.0
0.801393572636 4.37060096582 0.0
0.558460082533 4.72496728209 0.0
1.1741923373 4.41132830101 0.0
0.83220012886 4.12779415912 0.0
1.02815069622 4.30053276509 0.0
0.948308583502 4.2880204454 0.0
0.846588933095 4.50834596945 0.0
0.343666800815 4.43485820652 0.0
1.25632767671 4.43480360053 0.0
0.97849585731 4.47031535602 0.0
1.10170977548 4.51507265998 0.0
0.662193131828 4.26809398492 0.0
0.400503668388 4.26881657105 0.0
1.20117145985 4.26130427377 0.0
0.350957892513 4.21796558019 0.0
1.24904210749 4.21796558019 0.0
0.771964652188 4.18905379403 0.0
0.932165148285 4.72736281402 0.0
0.373672364094 4.73321357765 0.0
0.760245937722 4.28409350779 0.0
0.848718469252 4.05767763075 0.0
1.23385612561 4.7358294747 0.0
0.846421485813 4.28065918421 0.0
0.651597058631 4.13043284014 0.0
0.650489852552 4.72138045504 0.0
0.58457834847 4.16375088261 0.0
0.48701309933 4.18859927013 0.0
0.708495738406 4.58856947756 0.0
1.11203398596 4.18878062515 0.0
0.54865558244 4.10250047869 0.0
1.05126102377 4.10234629471 0.0
0.300013757486 4.26259646442 0.0
1.29998624251 4.26259646442 0.0
0.9465032388 4.12718070354 0.0
0.708587583337 4.14146095907 0.0
0.973348904468 4.19537871864 0.0
0.628721855632 4.19538356945 0.0
0.380175010018 4.34021880077 0.0
0.662092932411 4.45899041267 0.0
1.05133526787 4.22221992007 0.0
0.528087045766 4.64327882187 0.0
1.22233124543 4.33521693908 0.0
1.19001193434 4.36273586668 0.0
0.853024099244 4.39544003492 0.0
0.542800296246 4.22324366905 0.0
0.247706318737 4.45239119247 0.0
1.35229368126 4.45239119247 0.0
0.599153768578 4.12953797005 0.0
1.01616570494 4.16227683178 0.0
0.744705786938 4.40569544575 0.0
1.31929001115 4.73702550052 0.0
0.777615355331 4.15113602511 0.0
1.33132411895 4.60631378639 0.0
0.265621610877 4.60975488866 0.0
0.532023338888 4.15374454388 0.0
1.0697792195 4.15241429251 0.0
0.286371037106 4.73010312914 0.0
0.497725885905 4.50153668256 0.0
0.46053455822 4.31587947599 0.0
0.433799237968 4.54629400991 0.0
0.388624781906 4.65094200004 0.0
0.554823673752 4.40451940232 0.0
1.1421595646 4.31818301431 0.0
1.14760043966 4.61655103139 0.0
1.21258698805 4.65320200685 0.0
1.16279096046 4.53292621409 0.0
0.995762647814 4.12508772517 0.0
0.456229040627 4.61456685246 0.0
0.707289391156 4.21520271873 0.0
0.763036833302 4.74285445535 0.0
0.78386198569 4.49787013126 0.0
[...]
POINT_DATA 999
VECTORS Displacement float
0.077178962934 -0.196159690772 0
0.0826282240897 -0.196247348895 0
0.08 -0.2 0
0.08 -0.2 0
0.0828689343593 -0.196230856512 0
0.0831009506457 -0.196209228187 0
0.0833098319689 -0.1961841819 0
0.0834887504975 -0.196175735551 0
0.083601149494 -0.196193555512 0
0.0836760983319 -0.196248080682 0
0.0836540680552 -0.196347893931 0
0.0835278910634 -0.196502463109 0
0.0832818982087 -0.196753136142 0
0.08286457322 -0.197124390348 0
0.0822541162686 -0.19768220379 0
0.0813673857096 -0.198526966745 0
0.08 -0.2 0
0.08 -0.2 0
0.08 -0.2 0
0.08 -0.2 0
0.08 -0.2 0
0.08 -0.2 0
0.08 -0.2 0
0.08 -0.2 0
0.08 -0.2 0
0.08 -0.2 0
0.08 -0.2 0
0.08 -0.2 0
0.08 -0.2 0
0.08 -0.2 0
0.08 -0.2 0
0.08 -0.2 0
0.08 -0.2 0
0.0786187525272 -0.198509219947 0
0.0777128173597 -0.197647387155 0
0.0770557360575 -0.197074952856 0
0.0766350337548 -0.19668967956 0
0.0763754842907 -0.196430562334 0
0.0762319688757 -0.196270607957 0
0.0761951356584 -0.196168450554 0
0.0762570690983 -0.196111685666 0
0.0763575773543 -0.196091984662 0
0.0765254262031 -0.196098844562 0
0.0767240324926 -0.196122720152 0
0.0769466569759 -0.196143582985 0
0.0773711743038 -0.196033682909 0
0.0775829824447 -0.195892318092 0
0.0778120238103 -0.195727180903 0
0.0780629514096 -0.195538773668 0
0.0783345961485 -0.195318986093 0
0.0786189105455 -0.195062538598 0
0.0789203275993 -0.194772274937 0
0.0792512949053 -0.194444515047 0
0.0796085500399 -0.194049837337 0
0.0799731025596 -0.193619816571 0
0.0803644220539 -0.193120772073 0
0.0808038097521 -0.192541993046 0
0.0812655977304 -0.191841114626 0
0.0817955563662 -0.19094658657 0
0.0823095299741 -0.189844314244 0
0.0827291783209 -0.188745107342 0
0.0830438898311 -0.187681136834 0
0.0832738776989 -0.186630286729 0
0.0834317605139 -0.185636561522 0
0.083527386365 -0.184666307451 0
0.0835651780895 -0.183754649842 0
0.0835408294451 -0.182867607233 0
0.0834722177513 -0.182027720772 0
0.0833351535534 -0.181262106995 0
0.083152945859 -0.180594132857 0
0.082930544841 -0.179970543075 0
0.0826840376672 -0.179407359222 0
0.0824022984418 -0.178905341594 0
0.0821031492346 -0.178469324704 0
0.0817715709201 -0.178088775123 0
0.0814240725549 -0.177779576351 0
0.081052018961 -0.177529151503 0
0.0806730275725 -0.17734080818 0
0.0802793426543 -0.177215396293 0
0.0798428377575 -0.177102136046 0
0.079418577787 -0.177160737872 0
0.0790165667548 -0.17731918765 0
0.0786376268457 -0.177512562081 0
0.0782736997414 -0.177765250401 0
0.0779261883824 -0.178077387407 0
0.0775949551719 -0.178455900967 0
0.0772860657867 -0.178900818128 0
0.0770149626897 -0.179399019484 0
0.0767719855221 -0.179966902809 0
0.0765545355983 -0.180597541311 0
0.0763835214829 -0.181282833529 0
0.0762517201337 -0.182034936563 0
0.0761665793382 -0.18282661443 0
0.0761316646948 -0.183700455297 0
0.0761726116366 -0.184629433344 0
0.0762673927934 -0.185600613098 0
0.0764258294071 -0.18659669449 0
0.076653180055 -0.187643939376 0
0.0769713628074 -0.188716992971 0
0.0773793657702 -0.189798143745 0
0.0778971903376 -0.190917600315 0
0.0784329865946 -0.191825771552 0
0.0789100416423 -0.192551409042 0
0.0793610342024 -0.193143705465 0
0.079762088024 -0.193652608738 0
0.0801354059998 -0.194090631585 0
0.0805010395022 -0.194492491698 0
0.080839757987 -0.194826313129 0
0.0811484474374 -0.195122141675 0
0.0814398071066 -0.195383757315 0
0.0817182423475 -0.195608315531 0
0.0819757588256 -0.19580132 0
0.0822112720516 -0.195970960091 0
0.0824295182968 -0.196116781602 0
0.0823221795627 -0.192474949716 0
0.077591823806 -0.192459881292 0
0.0799402193243 -0.185925058589 0
0.0789031979187 -0.186231385689 0
0.083069062907 -0.193976138279 0
0.076761009294 -0.193957244434 0
0.080807352746 -0.1860539975 0
0.0799795266604 -0.181859622602 0
0.0797328933943 -0.181747058258 0
0.0817192097107 -0.190293718681 0
0.0780810410657 -0.190214754945 0
0.0798178228615 -0.193776447292 0
0.0771213683377 -0.196282980309 0
0.0827825380515 -0.196391185513 0
0.0804369512144 -0.182882125247 0
0.0798936320903 -0.186349033318 0
0.0792071088231 -0.182822612025 0
0.0798454681425 -0.186327010578 0
0.0776862177889 -0.193220223126 0
0.0821034807196 -0.193227103911 0
0.0787759644231 -0.189058944069 0
0.0829201533624 -0.195203792276 0
0.0768987292753 -0.195148620244 0
0.0799283161468 -0.179668169584 0
0.081140446456 -0.188791129144 0
0.0812013179848 -0.195759748061 0
0.0808738048148 -0.180427531728 0
0.0786167638967 -0.195804857063 0
0.0795553361345 -0.18931882211 0
0.0788349818707 -0.180399115601 0
0.0801818120375 -0.189298260017 0
0.0834858563103 -0.195559483874 0
0.0763759664994 -0.1955090228 0
0.0820322003747 -0.189851179474 0
0.0777394191347 -0.18998667281 0
0.0793575532301 -0.185196604323 0
0.0804058332772 -0.184993591599 0
0.0800582743127 -0.189956705787 0
0.0813246928899 -0.183884212608 0
0.0784075838579 -0.183852835508 0
0.0798827777896 -0.183307464675 0
0.0786501008721 -0.192845666427 0
0.0792722082482 -0.179164960623 0
0.0788327682065 -0.192013313466 0
0.0809242471194 -0.192020299762 0
0.0811015074605 -0.192961466775 0
0.0826224877746 -0.191909626916 0
0.0829588627153 -0.194013642438 0
0.0768598692622 -0.194236276138 0
0.0771998704925 -0.191890501792 0
0.0806215421728 -0.179090356771 0
0.0822756706417 -0.194775145009 0
0.0775205394081 -0.194725043203 0
0.0785240378537 -0.187930012509 0
0.0796160323708 -0.183821308771 0
0.081237904619 -0.187926658968 0
0.0821376631 -0.195487427328 0
0.0775948834727 -0.195179386128 0
0.0815931005094 -0.18124683626 0
0.0800748752824 -0.183635929772 0
0.0765663258628 -0.196461276231 0
0.0776086873545 -0.197784016704 0
0.0833389128011 -0.196500558405 0
0.0823679750043 -0.197792639106 0
0.0780880804337 -0.181203241952 0
0.0810202755929 -0.186912511245 0
0.0783277707203 -0.197765964604 0
0.0786974581464 -0.186884168899 0
0.081475561917 -0.198105319886 0
0.0802155759288 -0.196951644352 0
0.0796099210905 -0.185082051458 0
0.0783869967677 -0.188303825492 0
0.0783277319153 -0.193889449322 0
0.0814456464357 -0.193926052467 0
0.0800336569679 -0.184933782565 0
0.0797217658437 -0.178382330161 0
0.0813827550234 -0.188097804343 0
0.0794894153763 -0.196528761396 0
0.0798350858687 -0.181253658319 0
0.0770317191854 -0.19420773903 0
0.0827907728013 -0.194237499346 0
0.0832862860458 -0.195366260534 0
0.0833762378497 -0.195724559541 0
0.0764655775739 -0.195662001647 0
0.0794035150285 -0.187075327657 0
0.0801836923566 -0.182188644437 0
0.0823357980642 -0.192159444286 0
0.0765700213324 -0.19540290192 0
0.0805198937209 -0.187020084979 0
0.0774557164304 -0.192042845326 0
0.0788996104073 -0.188387480148 0
0.0797074846097 -0.191261535675 0
0.0800279840587 -0.191251570657 0
0.0792122417409 -0.190837298069 0
0.0818733856673 -0.190353130202 0
0.0809079918169 -0.18852098786 0
0.0773189507277 -0.195378859876 0
0.0824834546411 -0.195442874535 0
0.0801975263983 -0.180364419206 0
0.0794304854252 -0.181950189077 0
0.0786327732402 -0.179153492786 0
0.0816512824331 -0.179990728277 0
0.0821647005188 -0.182081493442 0
0.0780332178889 -0.180023656154 0
0.0775162848866 -0.182157215569 0
0.0781284914227 -0.190392997969 0
0.0809807379433 -0.188685233625 0
0.0819386046443 -0.185228843603 0
0.0772354111647 -0.192138288485 0
0.0787301015774 -0.188654815577 0
0.0777713630582 -0.185197044938 0
0.0797187639944 -0.183453913982 0
0.0805891559159 -0.194691614929 0
0.0800215350964 -0.183293015601 0
0.0818493705518 -0.193739183461 0
0.082525408625 -0.191834934245 0
0.0810809576765 -0.197961410507 0
0.076631517861 -0.19489136624 0
0.0832030544385 -0.194944434038 0
0.0802718221484 -0.17824892976 0
0.0785318964777 -0.190677172089 0
0.0812559839799 -0.179148152145 0
0.0812060634892 -0.190663759917 0
0.08194939078 -0.189761168382 0
0.0829995265975 -0.195777308441 0
0.0768214254307 -0.195706607256 0
0.0778470801693 -0.189761459553 0
0.077980669685 -0.193850434163 0
0.079355515509 -0.180430760282 0
0.0768634324822 -0.193264403941 0
0.0783201242778 -0.188001720592 0
0.0789531851944 -0.187161385491 0
0.0808117784034 -0.190439119774 0
0.0762976394824 -0.196118390281 0
0.083580245234 -0.196174950738 0
0.0799212072718 -0.187818569142 0
0.0789816390648 -0.198145019154 0
0.0829889584915 -0.193358366153 0
0.0796446567796 -0.180115736027 0
0.0814631259767 -0.187981276025 0
0.0808363702935 -0.186211648195 0
0.0804017338198 -0.192112736682 0
0.0765069102428 -0.194889890053 0
0.0833480224392 -0.194922228694 0
0.0816682683942 -0.191834086023 0
0.0825519495409 -0.194228050952 0
0.0791443091263 -0.18545963923 0
0.0779845997776 -0.192053099402 0
0.0816667036097 -0.192042536428 0
0.0790087809344 -0.193282986735 0
0.0807477438995 -0.193309107585 0
0.0798829559495 -0.181999219165 0
0.080562105299 -0.197973395519 0
0.0786529413805 -0.198707947105 0
0.0796438191195 -0.185099952288 0
0.0790930075304 -0.178210585863 0
0.08129349588 -0.198763658218 0
0.0801672058176 -0.185013475608 0
0.0808163261626 -0.181526066145 0
0.0793009099442 -0.197874614029 0
0.0804352431921 -0.183964680708 0
0.079835490771 -0.187737400008 0
0.0791796099383 -0.194479165218 0
0.0798998207905 -0.187677367878 0
0.0823421374899 -0.183528865443 0
0.0773567651207 -0.183495091392 0
0.0780920600461 -0.194647108782 0
0.0816881386448 -0.194697475216 0
0.0788609585974 -0.181399505653 0
0.0803407674084 -0.180999516683 0
0.0799165085915 -0.18386587582 0
0.079829101843 -0.18383457072 0
0.0770915048374 -0.193304356002 0
0.0785630801594 -0.191158538252 0
0.0805309328264 -0.186478939828 0
0.0781981545719 -0.19661897875 0
0.0826812012614 -0.193329703979 0
0.0828193379872 -0.192946782429 0
0.0804269956031 -0.188715664189 0
0.0791849905214 -0.18669290806 0
0.0762816887949 -0.195919135038 0
0.0835788996438 -0.195982134422 0
0.0811631511185 -0.182667403503 0
0.0792575797822 -0.183926203228 0
0.0793733021521 -0.189045161432 0
0.0814273940269 -0.19875181048 0
0.079955649592 -0.180798180551 0
0.0830591401071 -0.197075101886 0
0.0768835387671 -0.197069288152 0
0.0808144558612 -0.18530631226 0
0.0788599948743 -0.185312574542 0
0.0784652557512 -0.198655554075 0
0.0772873059678 -0.19395166662 0
0.0775625963589 -0.191020884296 0
0.0770842920602 -0.195465859404 0
0.0777010240205 -0.197438258756 0
0.0776642677378 -0.190982713551 0
0.0822716675544 -0.191131400431 0
0.0822933935445 -0.196560573983 0
0.0822247990342 -0.197489574585 0
0.0828543145853 -0.195214555795 0
0.0784837127117 -0.18240683103 0
0.0776407499089 -0.196491887954 0
0.0797112037054 -0.183263291789 0
0.0798382129619 -0.198227776362 0
0.0797771083287 -0.191762403717 0
0.0809248020229 -0.187306745181 0
0.0806644159497 -0.19024700894 0
0.0800043745948 -0.183106947265 0
0.0790487193639 -0.190220019737 0
0.083455983627 -0.195862097939 0
0.0808617371699 -0.178452060165 0
0.0777247387776 -0.194066615775 0
0.0820652997015 -0.194104864419 0
0.0796135827873 -0.1924935357 0
0.0801280561764 -0.192504253178 0
0.0780813541904 -0.192132249153 0
0.0769625845078 -0.192991509783 0
0.0802173198019 -0.179143737954 0
0.0791303427713 -0.193031748029 0
0.0782527019504 -0.192990394919 0
0.0815218646572 -0.193009257738 0
0.0764325164653 -0.19577644348 0
0.0832069639746 -0.194479950285 0
0.0805047211545 -0.185016484609 0
0.0777304804843 -0.19518942549 0
0.0820595338217 -0.195250314222 0
0.0815940935084 -0.197061439506 0
0.0766675502203 -0.194447607428 0
0.0770923015979 -0.195747023202 0
0.0827179131324 -0.195820532268 0
0.0821907664771 -0.180784537227 0
0.0798850029484 -0.182321866722 0
0.0828723236736 -0.196951569893 0
0.0770409775216 -0.196922152302 0
0.0783310803101 -0.18900493083 0
0.0806512990962 -0.179960484835 0
0.079899435256 -0.184317425886 0
0.0796356016349 -0.179230307069 0
0.0823444758588 -0.190854800544 0
0.0814607263002 -0.189049739608 0
0.0787176973463 -0.186899292564 0
0.0781328849838 -0.179121535713 0
0.0775630086249 -0.180821005662 0
0.0826979872274 -0.193312631268 0
0.0770764219799 -0.194751237307 0
0.082735926638 -0.194797670066 0
0.0812261063545 -0.194266087954 0
0.0774595965227 -0.190881919424 0
0.0788497725787 -0.186638842778 0
0.079496447808 -0.18498587397 0
0.0785552104744 -0.194235748152 0
0.0798339220107 -0.195877899074 0
0.0818406716079 -0.186984399203 0
0.0778677635035 -0.186952737182 0
0.0787544556259 -0.189531819944 0
0.0809157507711 -0.189477682712 0
0.0764066132342 -0.196443275233 0
0.0834917630467 -0.196496383096 0
0.079240480325 -0.185194958865 0
0.0809564319778 -0.186782115839 0
0.0800757461891 -0.185269922337 0
0.081673578563 -0.195445982 0
0.0787128935947 -0.178465717981 0
0.0812986589311 -0.190503137256 0
0.0832381117981 -0.195915521482 0
0.0765938896631 -0.195842220944 0
0.0792971211053 -0.190555425961 0
0.0790391835058 -0.179702357884 0
0.0804460554635 -0.190542007463 0
0.0794468167857 -0.184341987717 0
0.0806791965975 -0.196371918826 0
0.080845764061 -0.198859217466 0
0.0822048098303 -0.190954713003 0
0.0779858669653 -0.189518067883 0
0.0832287820335 -0.195333930431 0
0.0766056460255 -0.195280829481 0
0.0831538280396 -0.196163056169 0
0.0767342530812 -0.196097949015 0
0.0792827016094 -0.181064920151 0
0.0819653345965 -0.191363876402 0
0.0817703277569 -0.179184104241 0
0.0799456451195 -0.177796424167 0
0.079713268839 -0.181079980702 0
0.0769828743354 -0.193225289654 0
0.0778282092726 -0.191514067282 0
0.0788438444854 -0.193944313579 0
0.0809172499324 -0.193982456925 0
0.0801996021633 -0.187202325748 0
0.080245840827 -0.184069300294 0
0.0794219212327 -0.177968356107 0
0.0823828869748 -0.197848465548 0
0.0772951805488 -0.193857433482 0
0.0824913833784 -0.1938906425 0
0.0816816494948 -0.189051433387 0
0.0773769594715 -0.197622969857 0
0.0791832959193 -0.1989280274 0
0.0827766442044 -0.192507912529 0
0.0780755750344 -0.195587185783 0
0.0801576022087 -0.182835596467 0
0.0814878978116 -0.189077057202 0
0.0816385606884 -0.188668808052 0
0.0803053486738 -0.184918399608 0
0.0811557988438 -0.187037704494 0
0.0784381074779 -0.189142631885 0
0.0768125878939 -0.195176938557 0
0.0812803371429 -0.180789288016 0
0.0810283654314 -0.182129503214 0
0.0768404118879 -0.194737015209 0
0.0829813232789 -0.194796120574 0
0.0785240945314 -0.194425879499 0
0.0812449504902 -0.194472790659 0
0.0797231554007 -0.18221903022 0
0.0822056866473 -0.192651171318 0
0.0822478626712 -0.193687738703 0
0.0795954259347 -0.182855267651 0
0.0781210906439 -0.188737226696 0
0.0794203177335 -0.18581324896 0
0.077363835142 -0.192876883844 0
0.0770420348162 -0.195465167544 0
0.0827702123551 -0.195530038041 0
0.0802353972419 -0.198420113968 0
0.0804594490065 -0.186366931974 0
0.0804229122308 -0.187978155081 0
0.0770691064526 -0.192479979157 0
0.0804174368066 -0.185765278377 0
0.0783978520069 -0.180761258323 0
0.0772628999498 -0.192921340086 0
0.0804916657535 -0.187192893932 0
0.0808764972738 -0.199066173771 0
0.0827299049456 -0.182646468607 0
0.0793091468611 -0.187959143863 0
0.079135259444 -0.196187344575 0
0.0800318141024 -0.181075651193 0
0.0793550839657 -0.186464975172 0
0.0797579157608 -0.184082122615 0
0.0826850679085 -0.184260634322 0
0.0769326132098 -0.182633063141 0
0.0793032637287 -0.18720058602 0
0.0770188735323 -0.184220695254 0
0.0798465726939 -0.180423945365 0
0.080021937092 -0.184017904697 0
0.0800161073745 -0.178702236871 0
0.0834939385875 -0.195970684604 0
0.0763551653733 -0.195901058793 0
0.0826384654415 -0.181172541065 0
0.0822883734131 -0.180056852828 0
0.0797082801076 -0.198787848796 0
0.077437574517 -0.18004887042 0
0.0770826125292 -0.181213290111 0
0.0825040277884 -0.186106599273 0
0.0820052192341 -0.187944162132 0
0.0799470698177 -0.182421746184 0
0.0772009757434 -0.186073581722 0
0.0776989284729 -0.187912024499 0
0.0831280688319 -0.194845865253 0
0.0814152706828 -0.196603659117 0
0.0797271967554 -0.186911421868 0
0.0806786292391 -0.177944051549 0
0.0785152433554 -0.179699424728 0
0.081292619106 -0.178396164041 0
0.0805407582479 -0.181264384312 0
0.0828845794263 -0.193859529088 0
0.083224348525 -0.195636743657 0
0.0766077567664 -0.195573491447 0
0.0776186871859 -0.193613902436 0
0.0833817283276 -0.195320967528 0
0.0764648220182 -0.195273556889 0
0.0802981158474 -0.193601263952 0
0.0792086408508 -0.185620808514 0
0.0805123917504 -0.198766533442 0
0.0794020171494 -0.17871137831 0
0.080708553836 -0.188400111015 0
0.0803785837612 -0.191750657499 0
0.0793438518993 -0.191742238994 0
0.0767743942337 -0.194367569607 0
0.0806916126194 -0.186142612925 0
0.0782023377331 -0.182972985165 0
0.0800885391575 -0.183811083091 0
0.0824961949752 -0.195636112447 0
0.0798350738809 -0.182521090571 0
0.0790836357877 -0.186057951241 0
0.081264241987 -0.179813383149 0
0.0798746991431 -0.182159608891 0
0.0766870115195 -0.194041112239 0
0.0789999744156 -0.189771995213 0
0.0794518828367 -0.18001274373 0
0.0796084521178 -0.190230485162 0
0.079042122177 -0.187902733477 0
0.0817492070967 -0.184320431524 0
0.0799813753991 -0.190138195236 0
0.0797462293526 -0.190116503431 0
0.0779634229155 -0.184292735667 0
0.0801804280094 -0.186093297517 0
0.0803525581448 -0.179622928518 0
0.0818307273847 -0.183111017366 0
0.083437162549 -0.195411501202 0
0.0764338780223 -0.195347558378 0
0.0791886760877 -0.199138439587 0
0.0795912236979 -0.183801032533 0
0.0831547019081 -0.194040381521 0
0.080110961221 -0.179780864866 0
0.0782603201132 -0.178608970398 0
0.0771431884459 -0.195116826507 0
0.0826652118811 -0.19517327977 0
0.0775170574652 -0.195612421367 0
0.0822791198104 -0.19568319877 0
0.0790174045495 -0.179123349048 0
0.0771797923358 -0.192291263933 0
0.0815778415595 -0.181996273798 0
0.0830725030643 -0.195796646694 0
0.0805486229334 -0.185915524619 0
0.0786002607103 -0.181712291608 0
0.0830528203139 -0.194405187869 0
0.0769508320616 -0.195900510369 0
0.0828647584822 -0.19597864944 0
0.0806912846904 -0.193190666509 0
0.0819585754626 -0.191566210694 0
0.0811930951831 -0.185844337259 0
0.0773725372138 -0.194339223919 0
0.0824281862288 -0.194380025266 0
0.0784217314769 -0.191592705378 0
0.0798273411989 -0.182887368199 0
0.0813015765437 -0.191619498976 0
0.0805535690075 -0.185208411122 0
0.0805266428553 -0.178560253519 0
0.0774698564475 -0.191086064136 0
0.0785314121348 -0.185844971374 0
0.0792062047717 -0.191379711092 0
0.0805410351469 -0.191374897909 0
0.0815584085313 -0.193101790044 0
0.0784743961916 -0.189370064251 0
0.0791181598079 -0.199242065379 0
0.0781170493049 -0.195027561133 0
0.0816625745051 -0.195085837262 0
0.0808268040965 -0.179397171604 0
0.0813071054546 -0.189538327553 0
0.0783950972503 -0.189504765993 0
0.0795722811786 -0.18450888032 0
0.0799105392955 -0.182950649151 0
0.0793527087416 -0.198589731421 0
0.0792945748866 -0.188712826244 0
0.0788731426616 -0.191732401824 0
0.0825747518026 -0.192079791162 0
0.0804275600149 -0.190841209774 0
0.080452858182 -0.188749512031 0
0.080199671827 -0.184383439121 0
0.0834914801322 -0.195715648698 0
0.0763618858396 -0.195659618613 0
0.0787672454634 -0.187878547337 0
0.0779757963906 -0.193564330385 0
0.0818036140188 -0.193583433436 0
0.0818979933404 -0.190033385931 0
0.0785437093667 -0.193380927247 0
0.0812056040663 -0.193393051741 0
0.076243957959 -0.196073215435 0
0.0836264898156 -0.196137833178 0
0.0786466293689 -0.186988421298 0
0.0809380789489 -0.197217131113 0
0.082915875753 -0.193314614883 0
0.0808020313089 -0.19184852331 0
0.0813115455741 -0.189440406482 0
0.0799063516873 -0.182547183919 0
0.079583317022 -0.185675977834 0
0.0777061560455 -0.179365508066 0
0.081983830032 -0.192702159885 0
0.0832324298056 -0.194535454268 0
0.0766085148834 -0.194507059048 0
0.077639619504 -0.192247342463 0
0.0778916805332 -0.190028439718 0
0.0802329056232 -0.184315629986 0
0.0785550462494 -0.190179348586 0
0.0795364046841 -0.181367202623 0
0.0815097701203 -0.189928732107 0
0.0809267494041 -0.189499006856 0
0.0796065838437 -0.194732189703 0
0.0810229637812 -0.187998966559 0
0.0817946575578 -0.180558082455 0
0.0817538575041 -0.188959371655 0
0.0828255693779 -0.192715742962 0
0.0802804467772 -0.195704658475 0
0.0782020120225 -0.188550577016 0
0.0795689127206 -0.187980855115 0
0.0789152662209 -0.197360517758 0
0.0782459906582 -0.193133347345 0
0.078483612871 -0.187662767048 0
0.0795836932563 -0.183958029453 0
0.07862463342 -0.188123613851 0