# vtk DataFile Version 2.0
Generated with Solid Solver
ASCII
DATASET UNSTRUCTURED_GRID
POINTS 999 float 
0.2 4.325 0.0
1.4 4.325 0.0
1.4 4.825 0.0
0.2 4.825 0.0
1.4 4.34523264049 0.0
1.4 4.36751203886 0.0
1.4 4.39204525371 0.0
1.4 4.4190602782 0.0
1.4 4.44880817466 0.0
1.4 4.48156541084 0.0
1.4 4.51763640748 0.0
1.4 4.5573564007 0.0
1.4 4.60109451608 0.0
1.4 4.64925723872 0.0
1.4 4.70229217343 0.0
1.4 4.76069218095 0.0
1.33333333333 4.825 0.0
1.26666666667 4.825 0.0
1.2 4.825 0.0
1.13333333333 4.825 0.0
1.06666666667 4.825 0.0
1.0 4.825 0.0
0.933333333334 4.825 0.0
0.866666666668 4.825 0.0
0.800000000001 4.825 0.0
0.733333333334 4.825 0.0
0.666666666668 4.825 0.0
0.600000000001 4.825 0.0
0.533333333334 4.825 0.0
0.466666666667 4.825 0.0
0.4 4.825 0.0
0.333333333334 4.825 0.0
0.266666666667 4.825 0.0
0.2 4.76069218095 0.0
0.2 4.70229217343 0.0
0.2 4.64925723872 0.0
0.2 4.60109451608 0.0
0.2 4.5573564007 0.0
0.2 4.51763640748 0.0
0.2 4.48156541084 0.0
0.2 4.44880817466 0.0
0.2 4.4190602782 0.0
0.2 4.39204525371 0.0
0.2 4.36751203886 0.0
0.2 4.34523264049 0.0
0.212131543907 4.30926329506 0.0
0.224675715302 4.29385348652 0.0
0.23762369102 4.27878141198 0.0
0.250966423879 4.26405760374 0.0
0.264694484585 4.24969246611 0.0
0.278798324214 4.23569599189 0.0
0.293267939266 4.22207810803 0.0
0.308093289028 4.20884826442 0.0
0.323263842145 4.19601585877 0.0
0.338769084145 4.18358978512 0.0
0.354597997314 4.17157887342 0.0
0.37073960121 4.15999145532 0.0
0.387182441982 4.14883575334 0.0
0.403915091795 4.13811952025 0.0
0.420925712897 4.12785033813 0.0
0.438202430937 4.11803537461 0.0
0.455733079095 4.10868154223 0.0
0.473505374364 4.09979539439 0.0
0.491506842655 4.09138316882 0.0
0.509724826085 4.0834507802 0.0
0.528146580414 4.07600377808 0.0
0.546759103951 4.06904741762 0.0
0.56554943677 4.06258654322 0.0
0.584504260001 4.05662573401 0.0
0.60361041518 4.0511691282 0.0
0.622854334779 4.04622060039 0.0
0.642222678753 4.04178358113 0.0
0.661701681839 4.03786122392 0.0
0.681277836375 4.03445624851 0.0
0.700937245817 4.03157107217 0.0
0.720666255912 4.02920769845 0.0
0.740450894784 4.02736780161 0.0
0.76027736978 4.02605266363 0.0
0.780131702711 4.02526321235 0.0
0.799999999998 4.025 0.0
0.819868297285 4.02526321235 0.0
0.839722630216 4.02605266363 0.0
0.859549105212 4.02736780161 0.0
0.879333744085 4.02920769845 0.0
0.89906275418 4.03157107217 0.0
0.918722163621 4.03445624851 0.0
0.938298318157 4.03786122392 0.0
0.957777321244 4.04178358113 0.0
0.977145665218 4.04622060039 0.0
0.996389584817 4.0511691282 0.0
1.01549574 4.05662573401 0.0
1.03445056323 4.06258654322 0.0
1.05324089605 4.06904741762 0.0
1.07185341958 4.07600377808 0.0
1.09027517391 4.0834507802 0.0
1.10849315734 4.09138316882 0.0
1.12649462563 4.09979539439 0.0
1.1442669209 4.10868154222 0.0
1.16179756906 4.1180353746 0.0
1.1790742871 4.12785033813 0.0
1.1960849082 4.13811952024 0.0
1.21281755802 4.14883575334 0.0
1.22926039879 4.15999145532 0.0
1.24540200269 4.17157887342 0.0
1.26123091585 4.18358978512 0.0
1.27673615785 4.19601585877 0.0
1.29190671097 4.20884826442 0.0
1.30673206073 4.22207810803 0.0
1.32120167579 4.23569599189 0.0
1.33530551541 4.24969246611 0.0
1.34903357612 4.26405760374 0.0
1.36237630898 4.27878141198 0.0
1.3753242847 4.29385348652 0.0
1.38786845609 4.30926329506 0.0
1.05632730172 4.46025283906 0.0
0.549964048968 4.4630053958 0.0
0.806135520676 4.31186690218 0.0
0.603895783049 4.26079310371 0.0
1.22984770884 4.38318704125 0.0
0.3703382852 4.38423552752 0.0
0.995322815839 4.25565031136 0.0
0.728315816804 4.1765935937 0.0
0.872128173905 4.17288724072 0.0
1.14059401893 4.27298468684 0.0
0.461553191009 4.27181671009 0.0
0.784706775856 4.56821390922 0.0
0.398287125272 4.57945970538 0.0
1.20625306554 4.58334743514 0.0
0.624100842742 4.1589824436 0.0
0.5257453845 4.18811776279 0.0
0.978502430793 4.15488737058 0.0
1.07419209812 4.18825154482 0.0
0.364313698077 4.28677035763 0.0
1.23509538257 4.28681716733 0.0
0.68124123937 4.39284548972 0.0
1.31679378691 4.35012066749 0.0
0.283206213094 4.35012066749 0.0
0.791498533126 4.11467141721 0.0
0.931481076052 4.3801344917 0.0
0.966719065571 4.62778042839 0.0
0.684451667517 4.11068036752 0.0
0.618335406951 4.62686910993 0.0
0.450982331762 4.19686171732 0.0
0.915674266355 4.10995633851 0.0
1.14900051594 4.19689012964 0.0
1.30193709687 4.4481448133 0.0
0.298574667609 4.44816296922 0.0
1.05734787542 4.34990107617 0.0
0.539273225177 4.35252599628 0.0
0.709896798149 4.27721026287 0.0
0.895708916005 4.26924194389 0.0
0.813273511364 4.43835766235 0.0
0.559289631452 4.13230879113 0.0
1.04001407307 4.13281539633 0.0
0.801161810585 4.23146244955 0.0
0.665113819616 4.52056650186 0.0
0.852577362173 4.09111846388 0.0
0.390256727869 4.2242806298 0.0
1.20974450479 4.22428104599 0.0
0.921542541183 4.52778058719 0.0
1.14030889032 4.36437344809 0.0
1.15600477272 4.46808538305 0.0
0.435243219029 4.4750581257 0.0
0.462045157798 4.36654654286 0.0
0.735806812738 4.08472269746 0.0
1.30082934537 4.29793772796 0.0
0.299170654625 4.29793772796 0.0
0.533651712118 4.26265983853 0.0
0.666130919144 4.21652131559 0.0
1.0676097303 4.26179469382 0.0
1.08054433577 4.58530946155 0.0
0.506773767255 4.56568295079 0.0
0.626745312844 4.10124420826 0.0
0.933845304214 4.2106954732 0.0
0.293717639664 4.55175000185 0.0
0.312505022079 4.66426411351 0.0
1.3058164124 4.55154930624 0.0
1.29054387065 4.66302765963 0.0
0.973467966326 4.09941619478 0.0
0.487935413164 4.15087084015 0.0
0.461549079751 4.68836834982 0.0
1.11203248746 4.15093503889 0.0
1.14453515393 4.70617370303 0.0
0.840217564202 4.68891146633 0.0
0.585347033288 4.20539048534 0.0
0.619177396637 4.34227576306 0.0
0.331644410315 4.24962190462 0.0
1.26835558968 4.24962190462 0.0
1.01536156978 4.19987473052 0.0
0.809331033562 4.07065709122 0.0
0.982321540791 4.33437358971 0.0
0.725600576914 4.66999651799 0.0
0.812291456186 4.16642942492 0.0
0.335887692543 4.33918235669 0.0
1.26344844681 4.34017131907 0.0
1.23449730504 4.49457441524 0.0
1.34334172095 4.40539551957 0.0
0.256658279045 4.40539551957 0.0
0.741646926828 4.34287908527 0.0
0.674799084703 4.16673768522 0.0
1.18647435526 4.30955189749 0.0
0.360563250283 4.49596479569 0.0
0.873716483853 4.33845499203 0.0
0.418704489949 4.31146264283 0.0
0.492670911224 4.22931614809 0.0
0.403480880356 4.19046776931 0.0
1.19651541215 4.1904686246 0.0
0.728649253738 4.46214546491 0.0
1.00883674467 4.40174664879 0.0
1.11035034557 4.23161841276 0.0
0.261968539765 4.3130079512 0.0
1.33803146023 4.3130079512 0.0
0.74649980488 4.1318354354 0.0
0.927597725248 4.1577597079 0.0
0.892956618256 4.07619338913 0.0
0.659794281787 4.07951387326 0.0
0.587663534405 4.09486537006 0.0
0.942353209926 4.07935300973 0.0
1.01493747319 4.09476013719 0.0
0.613130017774 4.41369803882 0.0
0.449373501074 4.15377191978 0.0
0.514840228377 4.12225850006 0.0
0.497057592 4.41333092106 0.0
1.15061382426 4.15379293084 0.0
1.08514419473 4.12228328152 0.0
0.745617635771 4.23098957592 0.0
0.87523452213 4.59853036549 0.0
0.855262884783 4.2258970831 0.0
1.01126200032 4.53280064162 0.0
1.09391916408 4.40632408872 0.0
1.04436265455 4.71482000827 0.0
0.314320181089 4.38773968607 0.0
1.28649331902 4.38743720145 0.0
0.771211579291 4.06316862024 0.0
0.432259099658 4.24006002157 0.0
0.698583889427 4.07144353526 0.0
1.16802128371 4.238862881 0.0
1.09587629216 4.3086676659 0.0
1.35920470355 4.35666960471 0.0
0.240795296449 4.35666960471 0.0
0.504003580654 4.30815758118 0.0
0.579942709371 4.5342075073 0.0
0.875915224914 4.12815792528 0.0
0.426503136644 4.40717733008 0.0
0.57541416445 4.30365301522 0.0
0.683877978289 4.33161848113 0.0
0.888061695889 4.44633509246 0.0
0.26012287522 4.49859249103 0.0
1.33987712478 4.49859249103 0.0
0.801393572636 4.37060096582 0.0
0.558460082533 4.72496728209 0.0
1.1741923373 4.41132830101 0.0
0.83220012886 4.12779415912 0.0
1.02815069622 4.30053276509 0.0
0.948308583502 4.2880204454 0.0
0.846588933095 4.50834596945 0.0
0.343666800815 4.43485820652 0.0
1.25632767671 4.43480360053 0.0
0.97849585731 4.47031535602 0.0
1.10170977548 4.51507265998 0.0
0.662193131828 4.26809398492 0.0
0.400503668388 4.26881657105 0.0
1.20117145985 4.26130427377 0.0
0.350957892513 4.21796558019 0.0
1.24904210749 4.21796558019 0.0
0.771964652188 4.18905379403 0.0
0.932165148285 4.72736281402 0.0
0.373672364094 4.73321357765 0.0
0.760245937722 4.28409350779 0.0
0.848718469252 4.05767763075 0.0
1.23385612561 4.7358294747 0.0
0.846421485813 4.28065918421 0.0
0.651597058631 4.13043284014 0.0
0.650489852552 4.72138045504 0.0
0.58457834847 4.16375088261 0.0
0.48701309933 4.18859927013 0.0
0.708495738406 4.58856947756 0.0
1.11203398596 4.18878062515 0.0
0.54865558244 4.10250047869 0.0
1.05126102377 4.10234629471 0.0
0.300013757486 4.26259646442 0.0
1.29998624251 4.26259646442 0.0
0.9465032388 4.12718070354 0.0
0.708587583337 4.14146095907 0.0
0.973348904468 4.19537871864 0.0
0.628721855632 4.19538356945 0.0
0.380175010018 4.34021880077 0.0
0.662092932411 4.45899041267 0.0
1.05133526787 4.22221992007 0.0
0.528087045766 4.64327882187 0.0
1.22233124543 4.33521693908 0.0
1.19001193434 4.36273586668 0.0
0.853024099244 4.39544003492 0.0
0.542800296246 4.22324366905 0.0
0.247706318737 4.45239119247 0.0
1.35229368126 4.45239119247 0.0
0.599153768578 4.12953797005 0.0
1.01616570494 4.16227683178 0.0
0.744705786938 4.40569544575 0.0
1.31929001115 4.73702550052 0.0
0.777615355331 4.15113602511 0.0
1.33132411895 4.60631378639 0.0
0.265621610877 4.60975488866 0.0
0.532023338888 4.15374454388 0.0
1.0697792195 4.15241429251 0.0
0.286371037106 4.73010312914 0.0
0.497725885905 4.50153668256 0.0
0.46053455822 4.31587947599 0.0
0.433799237968 4.54629400991 0.0
0.388624781906 4.65094200004 0.0
0.554823673752 4.40451940232 0.0
1.1421595646 4.31818301431 0.0
1.14760043966 4.61655103139 0.0
1.21258698805 4.65320200685 0.0
1.16279096046 4.53292621409 0.0
0.995762647814 4.12508772517 0.0
0.456229040627 4.61456685246 0.0
0.707289391156 4.21520271873 0.0
0.763036833302 4.74285445535 0.0
0.78386198569 4.49787013126 0.0
[...]
POINT_DATA 999
VECTORS Displacement float
0.517375491736 -0.196248397394 0
0.522824051906 -0.196157977737 0
0.52 -0.2 0
0.52 -0.2 0
0.523056332626 -0.196141874764 0
0.523278921585 -0.196121008656 0
0.523477441605 -0.196097120038 0
0.523645107135 -0.196090308502 0
0.523745289417 -0.196110231711 0
0.523806883306 -0.196167521769 0
0.523770360275 -0.196270904431 0
0.523628308095 -0.196430304192 0
0.523365233263 -0.196687413446 0
0.522929464886 -0.1970674409 0
0.522299537877 -0.197637006836 0
0.521392016997 -0.198499453349 0
0.52 -0.2 0
0.52 -0.2 0
0.52 -0.2 0
0.52 -0.2 0
0.52 -0.2 0
0.52 -0.2 0
0.52 -0.2 0
0.52 -0.2 0
0.52 -0.2 0
0.52 -0.2 0
0.52 -0.2 0
0.52 -0.2 0
0.52 -0.2 0
0.52 -0.2 0
0.52 -0.2 0
0.52 -0.2 0
0.52 -0.2 0
0.518643143031 -0.19853653331 0
0.517758331116 -0.197691924246 0
0.517120614558 -0.19713145992 0
0.51671836071 -0.196755133868 0
0.516475945378 -0.196502341657 0
0.516348380501 -0.196347119209 0
0.516326099205 -0.196248462878 0
0.516401455741 -0.196194411574 0
0.516514251489 -0.196176776997 0
0.516693436715 -0.196185249062 0
0.516902494562 -0.196210274289 0
0.517134646383 -0.196231897498 0
0.517574313919 -0.196117756946 0
0.517792705702 -0.195971857169 0
0.518028415347 -0.195802102067 0
0.518286144517 -0.195608914603 0
0.518564766055 -0.195384106832 0
0.518856227841 -0.195122253777 0
0.519165039212 -0.194826180849 0
0.519503898182 -0.194492067785 0
0.519869743571 -0.194089824553 0
0.520243264684 -0.193651311979 0
0.520644595096 -0.193141642172 0
0.521095932084 -0.19254794101 0
0.521574116091 -0.191818358042 0
0.522108447325 -0.190907538342 0
0.5226165062 -0.189807466771 0
0.523028637118 -0.188722917589 0
0.523344401267 -0.18765856917 0
0.523578493829 -0.186600212299 0
0.523738936473 -0.185595682862 0
0.523829616707 -0.184630254848 0
0.52387136718 -0.183697674392 0
0.523832783222 -0.182833264752 0
0.523752185941 -0.182037648702 0
0.523620589804 -0.18128542311 0
0.523451157195 -0.180595178672 0
0.523232418311 -0.179963864873 0
0.522986790282 -0.179401966232 0
0.522706149606 -0.178902230715 0
0.522409007846 -0.178464844964 0
0.522079471057 -0.178081990219 0
0.521733788112 -0.177770243126 0
0.521363130129 -0.177514578211 0
0.52098450592 -0.177319608839 0
0.520592039842 -0.177165250248 0
0.520159132066 -0.177104206942 0
0.519731036418 -0.177215969582 0
0.51933161599 -0.177341437947 0
0.518949788512 -0.17752618951 0
0.518583586705 -0.177775669846 0
0.518234414952 -0.17808702972 0
0.517901667678 -0.178463986253 0
0.517591673471 -0.178908346861 0
0.517318889291 -0.179404360315 0
0.517072647675 -0.179965816756 0
0.516850958215 -0.180592003813 0
0.516669687091 -0.181262571881 0
0.516533393249 -0.182027859223 0
0.516461181099 -0.182863440414 0
0.516432367418 -0.183740718787 0
0.516474058264 -0.184664529826 0
0.516570710594 -0.185635464277 0
0.516728393201 -0.186627491535 0
0.516960058914 -0.187680770417 0
0.517273397677 -0.188741622262 0
0.51769212113 -0.189840170814 0
0.518206077737 -0.190943548899 0
0.518736337843 -0.191838906428 0
0.519198470548 -0.192540254256 0
0.519638194162 -0.193119255841 0
0.520029719635 -0.193618378128 0
0.520394422862 -0.194048433445 0
0.520751780008 -0.194443128896 0
0.521082835022 -0.19477085786 0
0.521384314351 -0.195061090579 0
0.521668685309 -0.19531747382 0
0.521940291691 -0.195537152263 0
0.522191136152 -0.195725490847 0
0.522420096127 -0.195890610286 0
0.522631863855 -0.196031976682 0
0.522464348515 -0.192473145292 0
0.517733515942 -0.192460749703 0
0.520151625739 -0.185925434958 0
0.519139015851 -0.186222698131 0
0.52323961236 -0.19394852664 0
0.516931726942 -0.193983461999 0
0.5210446449 -0.186062275848 0
0.52024321854 -0.18185650095 0
0.519997402351 -0.181751187861 0
0.521945448039 -0.190297797252 0
0.518309424986 -0.190208742561 0
0.51991740875 -0.193776245872 0
0.517208850386 -0.196300590335 0
0.52286827633 -0.196372515087 0
0.520710258924 -0.182876379719 0
0.52016411261 -0.18633003002 0
0.519481054728 -0.182827690144 0
0.520115551901 -0.186345049397 0
0.517900482455 -0.193243629774 0
0.522316567657 -0.193201768083 0
0.518952260965 -0.189055815133 0
0.52310444618 -0.195147196116 0
0.517083621017 -0.19520406677 0
0.520214807478 -0.179667739927 0
0.521321916069 -0.188794546801 0
0.521273980394 -0.195758766038 0
0.521157144145 -0.180423292411 0
0.518689615843 -0.195805803954 0
0.519824172736 -0.189300087424 0
0.519117972861 -0.180404322889 0
0.520448653331 -0.189316127266 0
0.523628355027 -0.195511497946 0
0.516518789007 -0.195555935427 0
0.522225193028 -0.189854762338 0
0.517931888334 -0.18998256538 0
0.519583983812 -0.185193076507 0
0.52063511835 -0.184997599103 0
0.520214585196 -0.189956964699 0
0.521614734969 -0.183867242216 0
0.518696205747 -0.183867881883 0
0.520126425281 -0.183307890936 0
0.518769040095 -0.192844752957 0
0.519563102678 -0.179174416626 0
0.519080154227 -0.192017129281 0
0.521169683346 -0.19201302686 0
0.521217264679 -0.192962041523 0
0.522805024239 -0.191903495264 0
0.523094379823 -0.194000616629 0
0.516992480384 -0.194249923153 0
0.517382356628 -0.191895138423 0
0.520913517188 -0.179082366576 0
0.522482690425 -0.194723528379 0
0.517728445762 -0.194775201086 0
0.518759679148 -0.187918627327 0
0.519867333157 -0.183815996502 0
0.52147296087 -0.187937295815 0
0.522224852933 -0.195482227342 0
0.517690257058 -0.195185042685 0
0.521878534417 -0.181245309754 0
0.520327563294 -0.183641240796 0
0.516665996759 -0.196502542084 0
0.517662562974 -0.197808032612 0
0.5234385477 -0.196458757896 0
0.522422441939 -0.197767466479 0
0.518373447168 -0.181203643741 0
0.521306671092 -0.186887053409 0
0.518372898685 -0.197772445783 0
0.518985274719 -0.186910280695 0
0.521513769791 -0.198098941855 0
0.520265820462 -0.196951453728 0
0.519870272891 -0.185070698454 0
0.518585852719 -0.188298248233 0
0.518558835469 -0.193925316533 0
0.521675449324 -0.193888029154 0
0.52029552781 -0.184944450702 0
0.520025669047 -0.178389686323 0
0.521584495579 -0.188103241802 0
0.51954688228 -0.196528851178 0
0.520102621053 -0.181255196795 0
0.517221541411 -0.194243987082 0
0.522979423315 -0.19419994414 0
0.523409045689 -0.195338354977 0
0.523537312074 -0.195660316756 0
0.516627039798 -0.195725383357 0
0.51960195969 -0.187073316903 0
0.520451419387 -0.182184406829 0
0.522540969498 -0.192148274709 0
0.516692446526 -0.195430923076 0
0.52072000274 -0.1870227239 0
0.517661557674 -0.192050982418 0
0.519151267772 -0.188372279107 0
0.519977700524 -0.191249328877 0
0.520295149644 -0.191259004243 0
0.519357853981 -0.190835918747 0
0.522043670351 -0.19035572991 0
0.521157247943 -0.188534885683 0
0.517520273098 -0.195443462921 0
0.522684003296 -0.195377188311 0
0.520476113698 -0.180360388663 0
0.519700252165 -0.181954667165 0
0.518926462309 -0.179161575365 0
0.521942995574 -0.179987008584 0
0.522454461732 -0.182083723868 0
0.518323955893 -0.180027860685 0
0.517806980548 -0.182155541737 0
0.518294394775 -0.190389970329 0
0.521272814763 -0.188660847424 0
0.522232562106 -0.185197092768 0
0.517397848809 -0.192141396871 0
0.519021843808 -0.188681669164 0
0.518065389794 -0.185225467127 0
0.519962906196 -0.183451830552 0
0.520675450096 -0.194691633435 0
0.520267262238 -0.183295786621 0
0.521960890317 -0.193737922466 0
0.522690696511 -0.191832176826 0
0.521118208197 -0.197958929838 0
0.516800021947 -0.1949349943 0
0.523371183919 -0.194899364885 0
0.520573718079 -0.178234328692 0
0.518774847789 -0.19067050052 0
0.52155056978 -0.179142470012 0
0.521447674894 -0.190668417124 0
0.522160553785 -0.189765591446 0
0.523181549032 -0.195704988641 0
0.517003991317 -0.195778052269 0
0.518059592794 -0.189755813007 0
0.518091703547 -0.193851559019 0
0.519634064499 -0.180436643154 0
0.517025880676 -0.193277924534 0
0.518536577019 -0.187993795403 0
0.519156790497 -0.187157290963 0
0.520964047543 -0.190440728695 0
0.516420021696 -0.196174606735 0
0.523702443497 -0.196118095725 0
0.520107450741 -0.187818651987 0
0.519015351727 -0.198147102613 0
0.5231488469 -0.193343398508 0
0.519925235345 -0.180120242608 0
0.521680141755 -0.187988724685 0
0.52105861338 -0.186217387679 0
0.520526949088 -0.192113211909 0
0.516655299207 -0.194923801022 0
0.523496032173 -0.194887280423 0
0.521808222275 -0.191835110285 0
0.522668522533 -0.194221313955 0
0.519375415489 -0.185454027196 0
0.518209669635 -0.192060992111 0
0.521893918111 -0.192032671057 0
0.51925710587 -0.193307687018 0
0.520994370554 -0.193281483452 0
0.52014241335 -0.181998169037 0
0.520596795047 -0.197972684041 0
0.518680510771 -0.198717065765 0
0.519866880334 -0.185098521451 0
0.519393837302 -0.178225459589 0
0.521320087998 -0.198754199674 0
0.520391471636 -0.185015546395 0
0.521094891337 -0.181522549143 0
0.519337662677 -0.197875317292 0
0.520711411604 -0.183953787345 0
0.520107215753 -0.187716666438 0
0.51927002514 -0.194478856922 0
0.520171015683 -0.187698046306 0
0.522642162275 -0.18350358665 0
0.517654349294 -0.183517103081 0
0.518316402273 -0.194697349165 0
0.521911324207 -0.194645645534 0
0.519139602894 -0.18140304954 0
0.520615456321 -0.180995359736 0
0.520176922284 -0.183872745688 0
0.520090122023 -0.183827567949 0
0.517282103461 -0.193325921771 0
0.518709308308 -0.191156561274 0
0.520784768645 -0.186492119182 0
0.518262192119 -0.196622999639 0
0.522873066135 -0.193305912479 0
0.523000191392 -0.192930483769 0
0.520602160514 -0.188717138622 0
0.519439357675 -0.186678435769 0
0.51642348509 -0.195983160151 0
0.523720430376 -0.195917389819 0
0.521446965945 -0.182662383913 0
0.519533684624 -0.183936316041 0
0.519544112485 -0.189043642067 0
0.521454454896 -0.198734205726 0
0.520228636465 -0.180796933838 0
0.523137356241 -0.197032632335 0
0.516960484748 -0.197111605437 0
0.521098417945 -0.185283938352 0
0.519144254099 -0.185333695307 0
0.518494433968 -0.198673522004 0
0.517410149044 -0.193957540891 0
0.517769031308 -0.191020994875 0
0.517186117227 -0.195479355304 0
0.517759399323 -0.197452877195 0
0.517832861911 -0.190980970572 0
0.522475646005 -0.191129074677 0
0.522366189519 -0.196550498565 0
0.522282233824 -0.197474599333 0
0.522961655086 -0.195200631184 0
0.518767145507 -0.182409642031 0
0.517714628231 -0.196501195571 0
0.519961717752 -0.183259653033 0
0.519867987991 -0.198227845083 0
0.519907148209 -0.19176207045 0
0.521127120612 -0.187310946221 0
0.520957224455 -0.190220036886 0
0.520256086584 -0.183111126178 0
0.519337847638 -0.190243584367 0
0.523577847676 -0.195820716315 0
0.521160575595 -0.178441821347 0
0.517939277101 -0.194104549306 0
0.522278801618 -0.194065080823 0
0.519877108663 -0.192501679331 0
0.520389337323 -0.192491853585 0
0.518218843015 -0.192131241605 0
0.51714052485 -0.193006183698 0
0.520509476593 -0.179137032935 0
0.519243156904 -0.193030974209 0
0.518483334945 -0.193010546626 0
0.521751072894 -0.192986463193 0
0.516555525226 -0.195815706597 0
0.523348821698 -0.194456948967 0
0.520744577988 -0.185022796803 0
0.517944641483 -0.195250672186 0
0.522272723555 -0.195187848677 0
0.521649771626 -0.197057246471 0
0.516808437969 -0.194468714544 0
0.517285738788 -0.195821309926 0
0.522910686718 -0.19574537342 0
0.522479826722 -0.180783524131 0
0.520140981174 -0.182324376506 0
0.522950471516 -0.196924108146 0
0.517119487313 -0.196949389057 0
0.518565215916 -0.188994319158 0
0.520935871059 -0.179955135286 0
0.520131013631 -0.184317818432 0
0.519926837734 -0.179236135257 0
0.522534289142 -0.190854708077 0
0.521692960588 -0.189058987371 0
0.518935520846 -0.186892825797 0
0.518430247827 -0.179128820691 0
0.517851119604 -0.180819396547 0
0.522836193658 -0.193305942672 0
0.517268536633 -0.194799023052 0
0.522927265098 -0.19474858014 0
0.521322506771 -0.194265897747 0
0.517650201568 -0.190880961002 0
0.51908936449 -0.186628368147 0
0.51977066756 -0.185000585538 0
0.518653319191 -0.194235777006 0
0.519901014534 -0.195877809592 0
0.52213378498 -0.186957648499 0
0.51816364833 -0.186982080582 0
0.51900366618 -0.18951905275 0
0.521165482592 -0.189489812515 0
0.51651128375 -0.196497376964 0
0.523596329914 -0.196441761351 0
0.51948496536 -0.185187210354 0
0.521194422169 -0.186792003495 0
0.520347813015 -0.185253839567 0
0.52175532215 -0.1954436964 0
0.519012443945 -0.178476179846 0
0.521454919938 -0.190505324092 0
0.523409039818 -0.19584058312 0
0.516765258286 -0.195916369482 0
0.519559359675 -0.190542187895 0
0.519325799499 -0.179709742774 0
0.520705701942 -0.190552496293 0
0.519687471804 -0.184337485062 0
0.52073953384 -0.196371542671 0
0.520867332626 -0.198856271956 0
0.522374926423 -0.190955689364 0
0.518174333148 -0.189513340349 0
0.523397633578 -0.195278945905 0
0.516774969891 -0.19533477558 0
0.523254189879 -0.196134850097 0
0.516835924393 -0.196125579782 0
0.519557737288 -0.181069843312 0
0.522183934793 -0.191360181231 0
0.522068226656 -0.179179895658 0
0.520258144015 -0.177790715094 0
0.519983367585 -0.181083692697 0
0.517132420213 -0.193234080659 0
0.518048578917 -0.191517173827 0
0.519087468302 -0.19398170245 0
0.521159315969 -0.193942822113 0
0.520394765083 -0.187203555018 0
0.520489156292 -0.184074023159 0
0.519727042397 -0.177988257573 0
0.522433898483 -0.197814240758 0
0.517495459818 -0.193889525782 0
0.522691393926 -0.193856716712 0
0.521873803407 -0.189056091866 0
0.517434609104 -0.197659110862 0
0.519203440954 -0.198930654711 0
0.522942801778 -0.192499966847 0
0.518157189185 -0.195590045312 0
0.520425129413 -0.182830365236 0
0.521672117351 -0.18908107806 0
0.521857069554 -0.188676354016 0
0.520557803149 -0.184926812568 0
0.521375915508 -0.187044689958 0
0.518619087902 -0.18913862256 0
0.516928461718 -0.195195350198 0
0.521565283727 -0.180786215671 0
0.521309236942 -0.182126039824 0
0.517021709659 -0.194781673879 0
0.523162106123 -0.194749835874 0
0.518759573059 -0.194472378981 0
0.521479053156 -0.194424493793 0
0.519986082929 -0.182223551764 0
0.522415991937 -0.192633998665 0
0.522366781745 -0.193684617738 0
0.519861610016 -0.182860354618 0
0.51833961027 -0.188728985415 0
0.519636267965 -0.185810748443 0
0.517566838248 -0.192894391746 0
0.517233395588 -0.195530594263 0
0.522960925763 -0.195463597246 0
0.520261906372 -0.198419873857 0
0.520739172324 -0.186343978357 0
0.520704691242 -0.187955048454 0
0.517236806848 -0.192486808633 0
0.520634403945 -0.185768343348 0
0.518682308349 -0.180764107528 0
0.517405743164 -0.192925338952 0
0.520749177294 -0.187208706983 0
0.520894934675 -0.199061643793 0
0.523028642329 -0.182638630354 0
0.519590778682 -0.187983356476 0
0.519199276952 -0.196187611782 0
0.520302397331 -0.181072981282 0
0.519633942844 -0.186486958628 0
0.519992905222 -0.184081209497 0
0.522984416068 -0.184222123882 0
0.517230952838 -0.182642479541 0
0.519562712148 -0.187183751699 0
0.517316696891 -0.184252664212 0
0.520123656337 -0.180425027966 0
0.520257651124 -0.184019537199 0
0.52031556939 -0.178697798383 0
0.523647456375 -0.195899456122 0
0.516509005877 -0.195971550293 0
0.5229240792 -0.181178970273 0
0.522584215936 -0.180052496714 0
0.51972915119 -0.198788143555 0
0.517731729494 -0.18005124811 0
0.517369183386 -0.181205094615 0
0.522801971979 -0.186073642123 0
0.522301456089 -0.187920828338 0
0.520208265372 -0.18241792592 0
0.517499506825 -0.186104452485 0
0.517997920193 -0.187941793778 0
0.523252898908 -0.194826539183 0
0.52147633998 -0.19660125682 0
0.519926017413 -0.186910760886 0
0.520982526054 -0.177928869187 0
0.518805330052 -0.179705789522 0
0.521594209846 -0.178388333141 0
0.520816667945 -0.181260430972 0
0.52306748379 -0.19382989847 0
0.523395241711 -0.195571862037 0
0.516779106593 -0.195637454692 0
0.517739480908 -0.193616379291 0
0.52353806599 -0.195271879589 0
0.516621558906 -0.195321646175 0
0.520400573704 -0.193601398582 0
0.519456944963 -0.1856108916 0
0.520533952303 -0.198765634722 0
0.51969828176 -0.178723227489 0
0.520890417294 -0.188402579158 0
0.520661911965 -0.191737584556 0
0.519623867806 -0.1917484967 0
0.51695025206 -0.194402824525 0
0.520908640959 -0.186147071479 0
0.518491398618 -0.182980097736 0
0.520357051613 -0.183802792898 0
0.522587408827 -0.195626691926 0
0.520089973783 -0.1825188878 0
0.519303257305 -0.186053280953 0
0.521554238608 -0.179809015258 0
0.520131670257 -0.182160431049 0
0.516843792753 -0.194063096335 0
0.519162847985 -0.189769801937 0
0.519733776964 -0.180019121087 0
0.519761243506 -0.190229762658 0
0.51923257151 -0.187899650567 0
0.522043761505 -0.184294495953 0
0.520259816238 -0.190117201633 0
0.520021546861 -0.190135023838 0
0.518256789376 -0.184315342114 0
0.520390401326 -0.186094846172 0
0.520638916272 -0.179616909628 0
0.522124476174 -0.183099407858 0
0.523571594859 -0.195373572824 0
0.516570085834 -0.19538492356 0
0.519205493061 -0.19914229931 0
0.519860150273 -0.183808927135 0
0.523311199653 -0.194017374307 0
0.520395710643 -0.179777056781 0
0.518561374214 -0.178617705585 0
0.517338185726 -0.195173714064 0
0.522859502334 -0.195115191593 0
0.517724805198 -0.195683905316 0
0.522486002689 -0.195610749562 0
0.519309284032 -0.179132524761 0
0.517370539128 -0.192300579599 0
0.521863505239 -0.181995085055 0
0.523176226445 -0.195774715064 0
0.520798664053 -0.185926311063 0
0.518881177738 -0.181714362989 0
0.523228165583 -0.194368504475 0
0.517138824376 -0.195979529455 0
0.523052153936 -0.195898844717 0
0.520801105367 -0.193191079211 0
0.522108490917 -0.191567058758 0
0.521480989447 -0.185817571724 0
0.517575891315 -0.194380823586 0
0.522630693992 -0.194336831595 0
0.518659989399 -0.191593849581 0
0.52007648284 -0.18288651322 0
0.521539106391 -0.191615474653 0
0.520785938158 -0.185213753803 0
0.520824061303 -0.178549156509 0
0.517646301947 -0.191085305586 0
0.518819784026 -0.185870142392 0
0.519464300468 -0.191373399976 0
0.520796667149 -0.191377343353 0
0.521676289486 -0.193101895193 0
0.518714905775 -0.189359123556 0
0.519133437168 -0.199250667497 0
0.518341887148 -0.19508596287 0
0.521886247385 -0.195026091166 0
0.521116871623 -0.179390758618 0
0.521607614566 -0.189510024177 0
0.518694759162 -0.189534325722 0
0.51980434473 -0.184506496715 0
0.52017110123 -0.182945865142 0
0.519377424654 -0.198590736343 0
0.519556845105 -0.188695018939 0
0.519007386441 -0.19173095596 0
0.522766862992 -0.192070790184 0
0.52057183952 -0.190842037009 0
0.520713783592 -0.188766610372 0
0.520433307239 -0.184386437553 0
0.523640954839 -0.195657781479 0
0.516511695299 -0.195716636068 0
0.519012907205 -0.18786492475 0
0.518198180431 -0.193593739153 0
0.522024892464 -0.193552000717 0
0.522115560171 -0.190037603758 0
0.518780941411 -0.193407559265 0
0.521441819509 -0.193364055056 0
0.516375657236 -0.196138338971 0
0.523757978695 -0.196072068283 0
0.518869930843 -0.1869806515 0
0.520986271413 -0.19721595449 0
0.523066040777 -0.193303457074 0
0.520932896733 -0.191849477241 0
0.521550023423 -0.18944971297 0
0.520161625424 -0.182550693098 0
0.519845361989 -0.185662025094 0
0.518004528499 -0.179371862789 0
0.522114463635 -0.192701584445 0
0.523392865842 -0.194502195772 0
0.516769297355 -0.194539109785 0
0.517853200329 -0.192257906337 0
0.51811067785 -0.190022817469 0
0.520483408533 -0.184322089308 0
0.518716709142 -0.190176591729 0
0.519806488428 -0.18137195554 0
0.521679078618 -0.189931699061 0
0.521094481363 -0.189501360447 0
0.519691787625 -0.194731965063 0
0.521267039475 -0.188011488313 0
0.522083662086 -0.180555307832 0
0.521954727545 -0.188964752168 0
0.523000519066 -0.192703558024 0
0.520350334929 -0.195704567113 0
0.518405084627 -0.188544323501 0
0.519753800552 -0.187979719511 0
0.51896175743 -0.1973619148 0
0.518364680819 -0.193133015086 0
0.518713003453 -0.187652872094 0
0.519824508529 -0.183954839027 0
0.518819429944 -0.188119017435 0
0.517969629765 -0.191496556891 0
0.51820397173 -0.180548923075 0
0.518025124074 -0.18153252107 0
0.516938540305 -0.19602471798 0
0.523244422488 -0.195943063691 0
0.523708941377 -0.195879918198 0
0.516426688865 -0.195937373692 0
0.520561646259 -0.177699302706 0
0.520439383411 -0.181036796237 0
0.521517704342 -0.18765734314 0
0.52001801541 -0.182799667057 0
0.522110900619 -0.194616223503 0
0.518594326685 -0.197720178747 0
0.523172854849 -0.193472496936 0
0.520374510971 -0.183715529367 0
0.520241393701 -0.185829058329 0
0.521290782411 -0.187249432583 0
0.518622671404 -0.190174460027 0