# vtk DataFile Version 2.0
Generated with Solid Solver
ASCII
DATASET UNSTRUCTURED_GRID
POINTS 999 float 
0.2 4.325 0.0
1.4 4.325 0.0
1.4 4.825 0.0
0.2 4.825 0.0
1.4 4.34523264049 0.0
1.4 4.36751203886 0.0
1.4 4.39204525371 0.0
1.4 4.4190602782 0.0
1.4 4.44880817466 0.0
1.4 4.48156541084 0.0
1.4 4.51763640748 0.0
1.4 4.5573564007 0.0
1.4 4.60109451608 0.0
1.4 4.64925723872 0.0
1.4 4.70229217343 0.0
1.4 4.76069218095 0.0
1.33333333333 4.825 0.0
1.26666666667 4.825 0.0
1.2 4.825 0.0
1.13333333333 4.825 0.0
1.06666666667 4.825 0.0
1.0 4.825 0.0
0.933333333334 4.825 0.0
0.866666666668 4.825 0.0
0.800000000001 4.825 0.0
0.733333333334 4.825 0.0
0.666666666668 4.825 0.0
0.600000000001 4.825 0.0
0.533333333334 4.825 0.0
0.466666666667 4.825 0.0
0.4 4.825 0.0
0.333333333334 4.825 0.0
0.266666666667 4.825 0.0
0.2 4.76069218095 0.0
0.2 4.70229217343 0.0
0.2 4.64925723872 0.0
0.2 4.60109451608 0.0
0.2 4.5573564007 0.0
0.2 4.51763640748 0.0
0.2 4.48156541084 0.0
0.2 4.44880817466 0.0
0.2 4.4190602782 0.0
0.2 4.39204525371 0.0
0.2 4.36751203886 0.0
0.2 4.34523264049 0.0
0.212131543907 4.30926329506 0.0
0.224675715302 4.29385348652 0.0
0.23762369102 4.27878141198 0.0
0.250966423879 4.26405760374 0.0
0.264694484585 4.24969246611 0.0
0.278798324214 4.23569599189 0.0
0.293267939266 4.22207810803 0.0
0.308093289028 4.20884826442 0.0
0.323263842145 4.19601585877 0.0
0.338769084145 4.18358978512 0.0
0.354597997314 4.17157887342 0.0
0.37073960121 4.15999145532 0.0
0.387182441982 4.14883575334 0.0
0.403915091795 4.13811952025 0.0
0.420925712897 4.12785033813 0.0
0.438202430937 4.11803537461 0.0
0.455733079095 4.10868154223 0.0
0.473505374364 4.09979539439 0.0
0.491506842655 4.09138316882 0.0
0.509724826085 4.0834507802 0.0
0.528146580414 4.07600377808 0.0
0.546759103951 4.06904741762 0.0
0.56554943677 4.06258654322 0.0
0.584504260001 4.05662573401 0.0
0.60361041518 4.0511691282 0.0
0.622854334779 4.04622060039 0.0
0.642222678753 4.04178358113 0.0
0.661701681839 4.03786122392 0.0
0.681277836375 4.03445624851 0.0
0.700937245817 4.03157107217 0.0
0.720666255912 4.02920769845 0.0
0.740450894784 4.02736780161 0.0
0.76027736978 4.02605266363 0.0
0.780131702711 4.02526321235 0.0
0.799999999998 4.025 0.0
0.819868297285 4.02526321235 0.0
0.839722630216 4.02605266363 0.0
0.859549105212 4.02736780161 0.0
0.879333744085 4.02920769845 0.0
0.89906275418 4.03157107217 0.0
0.918722163621 4.03445624851 0.0
0.938298318157 4.03786122392 0.0
0.957777321244 4.04178358113 0.0
0.977145665218 4.04622060039 0.0
0.996389584817 4.0511691282 0.0
1.01549574 4.05662573401 0.0
1.03445056323 4.06258654322 0.0
1.05324089605 4.06904741762 0.0
1.07185341958 4.07600377808 0.0
1.09027517391 4.0834507802 0.0
1.10849315734 4.09138316882 0.0
1.12649462563 4.09979539439 0.0
1.1442669209 4.10868154222 0.0
1.16179756906 4.1180353746 0.0
1.1790742871 4.12785033813 0.0
1.1960849082 4.13811952024 0.0
1.21281755802 4.14883575334 0.0
1.22926039879 4.15999145532 0.0
1.24540200269 4.17157887342 0.0
1.26123091585 4.18358978512 0.0
1.27673615785 4.19601585877 0.0
1.29190671097 4.20884826442 0.0
1.30673206073 4.22207810803 0.0
1.32120167579 4.23569599189 0.0
1.33530551541 4.24969246611 0.0
1.34903357612 4.26405760374 0.0
1.36237630898 4.27878141198 0.0
1.3753242847 4.29385348652 0.0
1.38786845609 4.30926329506 0.0
1.05632730172 4.46025283906 0.0
0.549964048968 4.4630053958 0.0
0.806135520676 4.31186690218 0.0
0.603895783049 4.26079310371 0.0
1.22984770884 4.38318704125 0.0
0.3703382852 4.38423552752 0.0
0.995322815839 4.25565031136 0.0
0.728315816804 4.1765935937 0.0
0.872128173905 4.17288724072 0.0
1.14059401893 4.27298468684 0.0
0.461553191009 4.27181671009 0.0
0.784706775856 4.56821390922 0.0
0.398287125272 4.57945970538 0.0
1.20625306554 4.58334743514 0.0
0.624100842742 4.1589824436 0.0
0.5257453845 4.18811776279 0.0
0.978502430793 4.15488737058 0.0
1.07419209812 4.18825154482 0.0
0.364313698077 4.28677035763 0.0
1.23509538257 4.28681716733 0.0
0.68124123937 4.39284548972 0.0
1.31679378691 4.35012066749 0.0
0.283206213094 4.35012066749 0.0
0.791498533126 4.11467141721 0.0
0.931481076052 4.3801344917 0.0
0.966719065571 4.62778042839 0.0
0.684451667517 4.11068036752 0.0
0.618335406951 4.62686910993 0.0
0.450982331762 4.19686171732 0.0
0.915674266355 4.10995633851 0.0
1.14900051594 4.19689012964 0.0
1.30193709687 4.4481448133 0.0
0.298574667609 4.44816296922 0.0
1.05734787542 4.34990107617 0.0
0.539273225177 4.35252599628 0.0
0.709896798149 4.27721026287 0.0
0.895708916005 4.26924194389 0.0
0.813273511364 4.43835766235 0.0
0.559289631452 4.13230879113 0.0
1.04001407307 4.13281539633 0.0
0.801161810585 4.23146244955 0.0
0.665113819616 4.52056650186 0.0
0.852577362173 4.09111846388 0.0
0.390256727869 4.2242806298 0.0
1.20974450479 4.22428104599 0.0
0.921542541183 4.52778058719 0.0
1.14030889032 4.36437344809 0.0
1.15600477272 4.46808538305 0.0
0.435243219029 4.4750581257 0.0
0.462045157798 4.36654654286 0.0
0.735806812738 4.08472269746 0.0
1.30082934537 4.29793772796 0.0
0.299170654625 4.29793772796 0.0
0.533651712118 4.26265983853 0.0
0.666130919144 4.21652131559 0.0
1.0676097303 4.26179469382 0.0
1.08054433577 4.58530946155 0.0
0.506773767255 4.56568295079 0.0
0.626745312844 4.10124420826 0.0
0.933845304214 4.2106954732 0.0
0.293717639664 4.55175000185 0.0
0.312505022079 4.66426411351 0.0
1.3058164124 4.55154930624 0.0
1.29054387065 4.66302765963 0.0
0.973467966326 4.09941619478 0.0
0.487935413164 4.15087084015 0.0
0.461549079751 4.68836834982 0.0
1.11203248746 4.15093503889 0.0
1.14453515393 4.70617370303 0.0
0.840217564202 4.68891146633 0.0
0.585347033288 4.20539048534 0.0
0.619177396637 4.34227576306 0.0
0.331644410315 4.24962190462 0.0
1.26835558968 4.24962190462 0.0
1.01536156978 4.19987473052 0.0
0.809331033562 4.07065709122 0.0
0.982321540791 4.33437358971 0.0
0.725600576914 4.66999651799 0.0
0.812291456186 4.16642942492 0.0
0.335887692543 4.33918235669 0.0
1.26344844681 4.34017131907 0.0
1.23449730504 4.49457441524 0.0
1.34334172095 4.40539551957 0.0
0.256658279045 4.40539551957 0.0
0.741646926828 4.34287908527 0.0
0.674799084703 4.16673768522 0.0
1.18647435526 4.30955189749 0.0
0.360563250283 4.49596479569 0.0
0.873716483853 4.33845499203 0.0
0.418704489949 4.31146264283 0.0
0.492670911224 4.22931614809 0.0
0.403480880356 4.19046776931 0.0
1.19651541215 4.1904686246 0.0
0.728649253738 4.46214546491 0.0
1.00883674467 4.40174664879 0.0
1.11035034557 4.23161841276 0.0
0.261968539765 4.3130079512 0.0
1.33803146023 4.3130079512 0.0
0.74649980488 4.1318354354 0.0
0.927597725248 4.1577597079 0.0
0.892956618256 4.07619338913 0.0
0.659794281787 4.07951387326 0.0
0.587663534405 4.09486537006 0.0
0.942353209926 4.07935300973 0.0
1.01493747319 4.09476013719 0.0
0.613130017774 4.41369803882 0.0
0.449373501074 4.15377191978 0.0
0.514840228377 4.12225850006 0.0
0.497057592 4.41333092106 0.0
1.15061382426 4.15379293084 0.0
1.08514419473 4.12228328152 0.0
0.745617635771 4.23098957592 0.0
0.87523452213 4.59853036549 0.0
0.855262884783 4.2258970831 0.0
1.01126200032 4.53280064162 0.0
1.09391916408 4.40632408872 0.0
1.04436265455 4.71482000827 0.0
0.314320181089 4.38773968607 0.0
1.28649331902 4.38743720145 0.0
0.771211579291 4.06316862024 0.0
0.432259099658 4.24006002157 0.0
0.698583889427 4.07144353526 0.0
1.16802128371 4.238862881 0.0
1.09587629216 4.3086676659 0.0
1.35920470355 4.35666960471 0.0
0.240795296449 4.35666960471 0.0
0.504003580654 4.30815758118 0.0
0.579942709371 4.5342075073 0.0
0.875915224914 4.12815792528 0.0
0.426503136644 4.40717733008 0.0
0.57541416445 4.30365301522 0.0
0.683877978289 4.33161848113 0.0
0.888061695889 4.44633509246 0.0
0.26012287522 4.49859249103 0.0
1.33987712478 4.49859249103 0.0
0.801393572636 4.37060096582 0.0
0.558460082533 4.72496728209 0.0
1.1741923373 4.41132830101 0.0
0.83220012886 4.12779415912 0.0
1.02815069622 4.30053276509 0.0
0.948308583502 4.2880204454 0.0
0.846588933095 4.50834596945 0.0
0.343666800815 4.43485820652 0.0
1.25632767671 4.43480360053 0.0
0.97849585731 4.47031535602 0.0
1.10170977548 4.51507265998 0.0
0.662193131828 4.26809398492 0.0
0.400503668388 4.26881657105 0.0
1.20117145985 4.26130427377 0.0
0.350957892513 4.21796558019 0.0
1.24904210749 4.21796558019 0.0
0.771964652188 4.18905379403 0.0
0.932165148285 4.72736281402 0.0
0.373672364094 4.73321357765 0.0
0.760245937722 4.28409350779 0.0
0.848718469252 4.05767763075 0.0
1.23385612561 4.7358294747 0.0
0.846421485813 4.28065918421 0.0
0.651597058631 4.13043284014 0.0
0.650489852552 4.72138045504 0.0
0.58457834847 4.16375088261 0.0
0.48701309933 4.18859927013 0.0
0.708495738406 4.58856947756 0.0
1.11203398596 4.18878062515 0.0
0.54865558244 4.10250047869 0.0
1.05126102377 4.10234629471 0.0
0.300013757486 4.26259646442 0.0
1.29998624251 4.26259646442 0.0
0.9465032388 4.12718070354 0.0
0.708587583337 4.14146095907 0.0
0.973348904468 4.19537871864 0.0
0.628721855632 4.19538356945 0.0
0.380175010018 4.34021880077 0.0
0.662092932411 4.45899041267 0.0
1.05133526787 4.22221992007 0.0
0.528087045766 4.64327882187 0.0
1.22233124543 4.33521693908 0.0
1.19001193434 4.36273586668 0.0
0.853024099244 4.39544003492 0.0
0.542800296246 4.22324366905 0.0
0.247706318737 4.45239119247 0.0
1.35229368126 4.45239119247 0.0
0.599153768578 4.12953797005 0.0
1.01616570494 4.16227683178 0.0
0.744705786938 4.40569544575 0.0
1.31929001115 4.73702550052 0.0
0.777615355331 4.15113602511 0.0
1.33132411895 4.60631378639 0.0
0.265621610877 4.60975488866 0.0
0.532023338888 4.15374454388 0.0
1.0697792195 4.15241429251 0.0
0.286371037106 4.73010312914 0.0
0.497725885905 4.50153668256 0.0
0.46053455822 4.31587947599 0.0
0.433799237968 4.54629400991 0.0
0.388624781906 4.65094200004 0.0
0.554823673752 4.40451940232 0.0
1.1421595646 4.31818301431 0.0
1.14760043966 4.61655103139 0.0
1.21258698805 4.65320200685 0.0
1.16279096046 4.53292621409 0.0
0.995762647814 4.12508772517 0.0
0.456229040627 4.61456685246 0.0
0.707289391156 4.21520271873 0.0
0.763036833302 4.74285445535 0.0
0.78386198569 4.49787013126 0.0
[...]
POINT_DATA 999
VECTORS Displacement float
0.117221401695 -0.19617258528 0
0.122688040334 -0.196245294277 0
0.12 -0.2 0
0.12 -0.2 0
0.122924879347 -0.19622887773 0
0.123153071841 -0.196207241064 0
0.123358136017 -0.196182076922 0
0.123533166917 -0.196173260839 0
0.12364168372 -0.196190481343 0
0.123712480871 -0.196244230432 0
0.123686099546 -0.196343151674 0
0.123555215872 -0.196496877433 0
0.123304177522 -0.196746868575 0
0.122881445061 -0.197117878381 0
0.122265362769 -0.197676093049 0
0.121372910362 -0.198522822538 0
0.12 -0.2 0
0.12 -0.2 0
0.12 -0.2 0
0.12 -0.2 0
0.12 -0.2 0
0.12 -0.2 0
0.12 -0.2 0
0.12 -0.2 0
0.12 -0.2 0
0.12 -0.2 0
0.12 -0.2 0
0.12 -0.2 0
0.12 -0.2 0
0.12 -0.2 0
0.12 -0.2 0
0.12 -0.2 0
0.12 -0.2 0
0.118624065725 -0.198514447233 0
0.117722961657 -0.197655605187 0
0.117070299378 -0.197084989043 0
0.116653716078 -0.196700876931 0
0.116397907595 -0.196442402431 0
0.116257789636 -0.196282824084 0
0.116224000716 -0.196180879316 0
0.116288700803 -0.196124251686 0
0.116391726844 -0.196104643545 0
0.116561899242 -0.196111581437 0
0.116762651212 -0.196135526352 0
0.116987261302 -0.19615644227 0
0.117415053666 -0.196045513289 0
0.117628310653 -0.195903043908 0
0.117858812403 -0.195736740388 0
0.118111226428 -0.195547100854 0
0.118384393822 -0.195325991515 0
0.118670251657 -0.195068107359 0
0.118973261754 -0.194776282369 0
0.119305926047 -0.194446813821 0
0.119665038766 -0.194050094614 0
0.12003151291 -0.193617786049 0
0.120424979701 -0.193115892474 0
0.12086696206 -0.192533127884 0
0.121332422766 -0.191824671874 0
0.121862696738 -0.190925950468 0
0.122374822056 -0.189823151147 0
0.122790363533 -0.188730595052 0
0.123104890804 -0.187668124829 0
0.123337731996 -0.186611229094 0
0.123494875985 -0.18561724096 0
0.123590599792 -0.184643959041 0
0.123628831132 -0.183726476575 0
0.123599479955 -0.182847507236 0
0.12352944471 -0.182009872446 0
0.123388767361 -0.181260024901 0
0.123211161099 -0.180583048735 0
0.122990027576 -0.179953905551 0
0.122742631403 -0.179391597028 0
0.12246021731 -0.178890247276 0
0.122160691205 -0.178453957087 0
0.121828545282 -0.178074142222 0
0.121480655517 -0.177764376424 0
0.121108052691 -0.177515541668 0
0.120728815461 -0.177328608397 0
0.12033497948 -0.177203847997 0
0.119897834976 -0.177088211876 0
0.119473273649 -0.177153252892 0
0.11907153029 -0.17730814835 0
0.118691875397 -0.17750014051 0
0.118327240241 -0.177753392763 0
0.117979191969 -0.178066640733 0
0.117647736011 -0.178447359857 0
0.11733926493 -0.178894539858 0
0.117067238488 -0.179391160684 0
0.116823535217 -0.17995894929 0
0.116606463905 -0.180593527567 0
0.116435885613 -0.181281068927 0
0.116304888021 -0.182035060984 0
0.116220486894 -0.182827682712 0
0.116182217673 -0.183693873104 0
0.116222211833 -0.18462449131 0
0.116314732332 -0.185595799039 0
0.116475462341 -0.1866012284 0
0.116700777759 -0.187648247281 0
0.117014557321 -0.188721061336 0
0.11742379284 -0.189817279339 0
0.117922194007 -0.190928264853 0
0.118578038651 -0.192016730082 0
0.1190650489 -0.192706768403 0
0.11948981536 -0.193227497714 0
0.119876145906 -0.193709809676 0
0.120239443127 -0.194132966872 0
0.120596241805 -0.194523846206 0
0.120928416211 -0.194850453604 0
0.121231669738 -0.195140348731 0
0.121518274179 -0.195397094384 0
0.121792266585 -0.195617617474 0
0.122045805736 -0.195807205147 0
0.122277684828 -0.195973827475 0
0.122492508637 -0.196117034806 0
0.122369391892 -0.192486932718 0
0.117626231649 -0.192454388174 0
0.119992468809 -0.185919235504 0
0.118955285121 -0.186219320862 0
0.123123928541 -0.193999461146 0
0.116798857786 -0.193956092666 0
0.120871184716 -0.186057054898 0
0.120035032837 -0.181848108306 0
0.119789540786 -0.18173929125 0
0.121799991085 -0.190326054415 0
0.118130849846 -0.190203838345 0
0.119847540171 -0.1937757646 0
0.11714230402 -0.196283290817 0
0.122809861059 -0.196398954237 0
0.120493890844 -0.182868730926 0
0.119950908956 -0.186333452246 0
0.119265329777 -0.182818977695 0
0.119913786097 -0.186332342042 0
0.117732662253 -0.19321696148 0
0.122176287555 -0.193268294729 0
0.118819593912 -0.189052001426 0
0.122975953661 -0.1952181614 0
0.116938897283 -0.195154044614 0
0.119984179361 -0.179657065128 0
0.12119341556 -0.18879404944 0
0.121226160244 -0.195763688543 0
0.120930444376 -0.180414031157 0
0.118636976852 -0.195802991772 0
0.119612995261 -0.189304071813 0
0.118890507686 -0.18039129589 0
0.120273762106 -0.189328281119 0
0.123528045275 -0.195569140852 0
0.116407725807 -0.195513770539 0
0.122094797994 -0.189865817007 0
0.117783391662 -0.189977574143 0
0.119409453485 -0.1851869711 0
0.120463033196 -0.184990305248 0
0.120101734418 -0.189954707168 0
0.121384875792 -0.18386745742 0
0.118464081836 -0.18385122617 0
0.119937799628 -0.183299053222 0
0.118681888562 -0.192841932323 0
0.119327248546 -0.179154727106 0
0.118886041826 -0.192004362809 0
0.121021241418 -0.19209015398 0
0.121138354254 -0.192965069404 0
0.122684855776 -0.191933962567 0
0.123003624535 -0.194029433075 0
0.11689077219 -0.194233766468 0
0.117240960407 -0.191883765369 0
0.120678039356 -0.179077330349 0
0.122341519096 -0.194797626538 0
0.117565499991 -0.194728627074 0
0.118575597047 -0.187917412664 0
0.119670458433 -0.183809385331 0
0.121309978272 -0.187939765423 0
0.12216730264 -0.195495283922 0
0.117618804049 -0.195176926457 0
0.121650055799 -0.181233696282 0
0.120133960168 -0.183632164649 0
0.116589086272 -0.196466368994 0
0.117621400838 -0.197787088139 0
0.123368000938 -0.196504486778 0
0.122383910954 -0.197794255104 0
0.118143133185 -0.181197887007 0
0.121080008985 -0.186895842641 0
0.118339477673 -0.197765685728 0
0.118760165157 -0.186888529213 0
0.121488768733 -0.198108711138 0
0.120232372864 -0.196952511406 0
0.119665598039 -0.185068172842 0
0.118433330621 -0.188294439102 0
0.118377586924 -0.193888974418 0
0.121524583795 -0.193966937154 0
0.120096977257 -0.184934612626 0
0.11977719612 -0.178371362677 0
0.121442146453 -0.188103549223 0
0.119506989266 -0.196528215187 0
0.119890976481 -0.181243949323 0
0.11707311695 -0.194208368048 0
0.122850622022 -0.19426324844 0
0.123324549752 -0.195378284299 0
0.123423200982 -0.195730938563 0
0.116500898628 -0.195669904698 0
0.11945224882 -0.187068343021 0
0.120239611951 -0.182176051832 0
0.122407998365 -0.192195769906 0
0.116598064137 -0.195404092825 0
0.12057320347 -0.187018163504 0
0.11750085999 -0.192036066875 0
0.118953830315 -0.18837366911 0
0.119765603796 -0.191248169205 0
0.120146377066 -0.191332439269 0
0.11925117162 -0.190833259907 0
0.121927413199 -0.190362510479 0
0.120988653521 -0.188541022981 0
0.11736247164 -0.195386113055 0
0.122545713053 -0.195454390724 0
0.120253610513 -0.180352462616 0
0.119487811773 -0.181944128981 0
0.11868744029 -0.179143894766 0
0.121708498279 -0.179976279228 0
0.122223623554 -0.182069161223 0
0.118087292625 -0.180016485283 0
0.117570709041 -0.182155030147 0
0.11816879415 -0.190385861492 0
0.121042750656 -0.18866930684 0
0.121999307053 -0.185209250214 0
0.117273096158 -0.192132119222 0
0.118798107407 -0.188667089361 0
0.117825539577 -0.185195387229 0
0.119772992849 -0.18344398632 0
0.120616966742 -0.194693423074 0
0.120077890055 -0.183286289824 0
0.121886468635 -0.193746680367 0
0.122580776491 -0.191851956104 0
0.121094448971 -0.197964322635 0
0.116668530394 -0.194894464353 0
0.123254182978 -0.194960910822 0
0.120327782001 -0.178236809775 0
0.118584413122 -0.190665755416 0
0.121312926242 -0.179133943857 0
0.121298400048 -0.190709264971 0
0.122020228682 -0.189782064647 0
0.123053575677 -0.195782811231 0
0.116860978856 -0.195715824077 0
0.117894280752 -0.189751123743 0
0.118009160826 -0.193846675444 0
0.119411374758 -0.180421915397 0
0.116900213085 -0.193260579228 0
0.118368801291 -0.18799072289 0
0.119001437234 -0.187152690762 0
0.120856829803 -0.190440643358 0
0.116325000031 -0.196125963185 0
0.123615234482 -0.196177746825 0
0.11996975162 -0.187814358074 0
0.118991153251 -0.198144509121 0
0.123042011739 -0.193379555697 0
0.119700383353 -0.180105751066 0
0.121528528917 -0.187990689005 0
0.12089599509 -0.186212526768 0
0.120439216866 -0.192113222061 0
0.116540096329 -0.194891410897 0
0.123393664946 -0.194937642173 0
0.121713092728 -0.191840951304 0
0.122590948914 -0.19423961947 0
0.119196218287 -0.185448782812 0
0.118033392059 -0.192045682785 0
0.121750914126 -0.19209301115 0
0.119062267155 -0.193279373289 0
0.120839089997 -0.193370176702 0
0.119938397297 -0.181988965019 0
0.120574555106 -0.197974973566 0
0.118659832371 -0.198708811059 0
0.119696223345 -0.185091819295 0
0.119147399105 -0.178199666198 0
0.121301962809 -0.198765335382 0
0.120222075907 -0.185008240905 0
0.120873001745 -0.181512803925 0
0.11931194056 -0.19787411523 0
0.1204931251 -0.183950062124 0
0.119893222398 -0.187721965215 0
0.11920559502 -0.194477367022 0
0.119975559839 -0.187689547627 0
0.12240393392 -0.183509416088 0
0.117409380495 -0.18349323731 0
0.118140509348 -0.194650414321 0
0.12176255017 -0.194723014166 0
0.118917263521 -0.181393462367 0
0.120396899278 -0.180986970322 0
0.119976932272 -0.183863576917 0
0.119884697601 -0.183821584757 0
0.117133353877 -0.193301368109 0
0.118600569165 -0.191153204026 0
0.120600085925 -0.186485488078 0
0.118215069108 -0.196617601738 0
0.122745141971 -0.193361118602 0
0.122880259642 -0.192974160711 0
0.120475430631 -0.188714357399 0
0.119239711299 -0.186678825292 0
0.116312980152 -0.195927769467 0
0.123619433182 -0.195985237281 0
0.121221547781 -0.182653702961 0
0.119317332655 -0.183924715001 0
0.119417527214 -0.189040046616 0
0.121434831089 -0.198751337291 0
0.120011482551 -0.180787300831 0
0.123081279523 -0.19707530645 0
0.116901172852 -0.197075526018 0
0.120873740261 -0.185289170767 0
0.118920399855 -0.185312966637 0
0.118472104632 -0.198658285642 0
0.117317022718 -0.193947959458 0
0.117608234244 -0.19101214885 0
0.117108716195 -0.195464670635 0
0.117715307855 -0.197439098121 0
0.117704030556 -0.190975349139 0
0.122343046803 -0.191160406818 0
0.122317711018 -0.196567557145 0
0.122243157257 -0.197494163455 0
0.122889522085 -0.195225866096 0
0.118540071771 -0.182403421577 0
0.117659211437 -0.196491017812 0
0.119765682277 -0.183252137533 0
0.119848006866 -0.1982279001 0
0.119814100097 -0.191760637627 0
0.120980878113 -0.18730781341 0
0.120727331827 -0.190229674229 0
0.120061869057 -0.183101214448 0
0.119146584888 -0.19025736135 0
0.123492235799 -0.195870068747 0
0.120918326308 -0.178438539613 0
0.117771128673 -0.194066993319 0
0.122135296607 -0.194138078663 0
0.119670278296 -0.19248544725 0
0.120237088914 -0.192599782115 0
0.118115953754 -0.192126973453 0
0.11700224712 -0.192987319529 0
0.120273428177 -0.179131731718 0
0.119161790048 -0.193029060952 0
0.118302475221 -0.19298591955 0
0.121603491251 -0.193061917165 0
0.116460339328 -0.195780183775 0
0.123252442551 -0.194496710838 0
0.120565240309 -0.185015623804 0
0.11777675195 -0.195195649855 0
0.122128213371 -0.195265545262 0
0.121613580448 -0.197066245883 0
0.116699692386 -0.194446446855 0
0.117134111968 -0.195756699849 0
0.122776414288 -0.195825580432 0
0.122247406621 -0.180771317316 0
0.119941166434 -0.182313744564 0
0.122895927724 -0.196956212211 0
0.117059396258 -0.196924945259 0
0.118382161621 -0.188992677579 0
0.120707801375 -0.179947359644 0
0.119953636856 -0.184309986592 0
0.119691045536 -0.179219684414 0
0.122408613515 -0.190875400177 0
0.121538256722 -0.189071486268 0
0.118767302705 -0.18688877316 0
0.11818702269 -0.179112965534 0
0.117617064755 -0.180815428242 0
0.12274423586 -0.193327342625 0
0.117118143201 -0.194754621301 0
0.122795215391 -0.19481799217 0
0.121257889414 -0.194270328339 0
0.117502654137 -0.190873564127 0
0.118902260285 -0.186626182715 0
0.119559022112 -0.184986686369 0
0.118581827467 -0.194232866848 0
0.119854936154 -0.195877859161 0
0.121901319906 -0.186967778073 0
0.117922990362 -0.186956390142 0
0.11880824791 -0.189518772654 0
0.121004389124 -0.189509156097 0
0.116430216728 -0.196451038084 0
0.123521374806 -0.196497045591 0
0.119293944582 -0.185182699409 0
0.121023539339 -0.186788806835 0
0.120133208984 -0.185254557617 0
0.121701529086 -0.195451857019 0
0.118767183849 -0.178454798838 0
0.121346421906 -0.190507490521 0
0.123287943169 -0.195918557235 0
0.11663112884 -0.195852277016 0
0.119353541166 -0.190542005041 0
0.119094429276 -0.179693034407 0
0.120550656487 -0.190594832599 0
0.119500151329 -0.184331028884 0
0.120699752991 -0.196374033587 0
0.120853659758 -0.198861063676 0
0.122260567548 -0.190968108525 0
0.118029728513 -0.189509170288 0
0.123279107101 -0.195345962986 0
0.116642669363 -0.195286340434 0
0.123184701024 -0.196171013988 0
0.116757861054 -0.196099894875 0
0.119339067569 -0.181057371497 0
0.122044666768 -0.191402959769 0
0.121827716805 -0.179169321693 0
0.120001213912 -0.177784689806 0
0.119769366694 -0.181070933232 0
0.117017514176 -0.193220940326 0
0.117876221055 -0.191505610209 0
0.118896387492 -0.193944045457 0
0.121003995612 -0.194025736867 0
0.12025063544 -0.18719882959 0
0.120304202131 -0.184065401242 0
0.119476742934 -0.177957974343 0
0.122396743063 -0.197846820869 0
0.117338732277 -0.193856726167 0
0.122556579313 -0.193922243692 0
0.121740828621 -0.189060190303 0
0.117390211221 -0.197628616812 0
0.119188860692 -0.198927950281 0
0.122832680916 -0.192528679114 0
0.11809700566 -0.195584937493 0
0.120213750568 -0.18282265838 0
0.121543480846 -0.189083085745 0
0.121707858061 -0.188683374038 0
0.120367965014 -0.184918619688 0
0.121218209723 -0.187042360916 0
0.118481744213 -0.189134757689 0
0.116839692968 -0.195176219884 0
0.121337179614 -0.180775589172 0
0.12108578857 -0.182116197234 0
0.116879978343 -0.19473995059 0
0.123036891757 -0.194815227839 0
0.118574926629 -0.194428068681 0
0.121326146931 -0.194503855865 0
0.119780514119 -0.182212579523 0
0.122279383198 -0.192691979892 0
0.122287670561 -0.19369778958 0
0.119654029489 -0.182850976073 0
0.118169695516 -0.188726037681 0
0.119471323686 -0.185804862766 0
0.11740817472 -0.192872490979 0
0.117083457297 -0.195472812549 0
0.122828050754 -0.195539777598 0
0.120244803178 -0.198420878787 0
0.120518153838 -0.186350359667 0
0.120482503453 -0.187962363888 0
0.117107346848 -0.192474383453 0
0.120472828971 -0.185762084407 0
0.118453017895 -0.180754719409 0
0.117296830648 -0.192916300397 0
0.120564973271 -0.187203173651 0
0.120882917394 -0.199067675671 0
0.122790836245 -0.182629902338 0
0.119382572651 -0.187970119972 0
0.119154036828 -0.196186187966 0
0.120087624157 -0.181064291189 0
0.119421693469 -0.186469450538 0
0.119811760393 -0.184073500416 0
0.122747007095 -0.184238051432 0
0.116985886635 -0.182632652765 0
0.11935879862 -0.187185979599 0
0.117069813729 -0.184217068083 0
0.119902425577 -0.180413481717 0
0.120077198494 -0.184011108888 0
0.120071935469 -0.178690658951 0
0.123537979699 -0.195973058373 0
0.116388858098 -0.195910756237 0
0.122694128973 -0.181162927066 0
0.12234626054 -0.180041710459 0
0.119714984068 -0.19878780773 0
0.117490584068 -0.180041613072 0
0.117136331391 -0.181209813334 0
0.122565692001 -0.186087830901 0
0.12206656543 -0.187929479537 0
0.120002428421 -0.18240985001 0
0.117253246572 -0.186073608055 0
0.117750520787 -0.187917855882 0
0.123168248388 -0.194859759867 0
0.121436643861 -0.196608111936 0
0.119776987571 -0.186905570292 0
0.120734886774 -0.177931266123 0
0.118570029711 -0.179691058134 0
0.121349369893 -0.178381745592 0
0.120597099411 -0.181251370395 0
0.122943729697 -0.193886290051 0
0.123274600045 -0.195644398596 0
0.116645074058 -0.195581260934 0
0.11764866211 -0.193609727125 0
0.123428349442 -0.195333001745 0
0.11649938938 -0.19527809848 0
0.120329644468 -0.19360192608 0
0.119262555746 -0.185607836938 0
0.120520446054 -0.198767782216 0
0.119456966763 -0.17870084552 0
0.120759476885 -0.188400082176 0
0.120439546788 -0.191736860293 0
0.119482409544 -0.191871762053 0
0.116813036782 -0.194368414459 0
0.120748873708 -0.186141682115 0
0.118257970598 -0.182970816221 0
0.120145194852 -0.183797404103 0
0.122526714976 -0.195645205012 0
0.119890094658 -0.182510478828 0
0.119134188406 -0.186048133715 0
0.12132118954 -0.179799287509 0
0.119930374297 -0.182150391378 0
0.116722274641 -0.194039501364 0
0.119041765365 -0.189766435095 0
0.119507491238 -0.180003117203 0
0.119649913086 -0.19022714952 0
0.119088702249 -0.187895324301 0
0.121810223918 -0.184301411805 0
0.120041190398 -0.190122635364 0
0.119850072379 -0.190160066857 0
0.118018020073 -0.184290865806 0
0.120233547566 -0.186088845832 0
0.12040883448 -0.179610545657 0
0.121891314136 -0.183094933011 0
0.123477876948 -0.195423053384 0
0.116464491051 -0.195350349466 0
0.119193140477 -0.199138649336 0
0.119651451226 -0.183799099541 0
0.123205266064 -0.194060646827 0
0.120167008094 -0.179769204332 0
0.118314336347 -0.178598947025 0
0.117185425615 -0.195122350806 0
0.122725012568 -0.19518867755 0
0.117561941498 -0.195621231757 0
0.122344434598 -0.19569092464 0
0.119072263955 -0.179113212157 0
0.117222091172 -0.192285303781 0
0.12163578107 -0.181983439937 0
0.123105286603 -0.195806617168 0
0.120614523908 -0.185919342604 0
0.118656460951 -0.181707279916 0
0.123107841547 -0.194427134974 0
0.11699147703 -0.195911343664 0
0.122920859746 -0.195980899841 0
0.120725605416 -0.19319257538 0
0.122007112364 -0.191575547599 0
0.121252939584 -0.185826506197 0
0.117416601596 -0.194340786502 0
0.122492801187 -0.194407135139 0
0.118473201988 -0.191583294868 0
0.119882268778 -0.182877819564 0
0.121393451868 -0.191675549561 0
0.12061271047 -0.185206884818 0
0.120582969335 -0.178547576994 0
0.11751059927 -0.191078427375 0
0.118590789356 -0.185846019493 0
0.119261747694 -0.191368032326 0
0.120647564038 -0.191446080219 0
0.121596875614 -0.193107747422 0
0.118526561216 -0.189357600587 0
0.119121858931 -0.19924328172 0
0.118165628675 -0.195032922065 0
0.121737282151 -0.195104428145 0
0.120883455951 -0.17938369376 0
0.121371391347 -0.189520718997 0
0.118457387948 -0.189522041124 0
0.119625259115 -0.184499548403 0
0.119965911198 -0.182938334065 0
0.119360031568 -0.198589398463 0
0.119350801131 -0.188698316161 0
0.118908857515 -0.191728235854 0
0.122641168855 -0.192109197653 0
0.120469565834 -0.190841205946 0
0.120538089309 -0.188772767536 0
0.120255944923 -0.184378289835 0
0.123535026892 -0.195722757519 0
0.116394910071 -0.195666437456 0
0.118820457211 -0.187865130678 0
0.118023837378 -0.193562380484 0
0.121878821276 -0.193626477896 0
0.12197315561 -0.190059220479 0
0.118594842742 -0.193377979373 0
0.121289692184 -0.193446221671 0
0.116273145929 -0.19608242862 0
0.123663820768 -0.196139001695 0
0.118696787731 -0.186977206003 0
0.120955147497 -0.197219946808 0
0.122965920062 -0.193332785701 0
0.120841975558 -0.191850515945 0
0.121394465706 -0.189468343035 0
0.119963104929 -0.182540077632 0
0.119639261053 -0.185661543487 0
0.117759481265 -0.179358296355 0
0.122026848426 -0.192710970039 0
0.123282620556 -0.19455450869 0
0.116644235274 -0.194507672732 0
0.117686153754 -0.192240914323 0
0.117939869973 -0.190017891269 0
0.120293473696 -0.184313737125 0
0.118595538197 -0.190173013728 0
0.119592986659 -0.181359504009 0
0.121561647028 -0.189934680729 0
0.12097563899 -0.189500833218 0
0.119632099855 -0.194731348374 0
0.121098506585 -0.188014326117 0
0.121851585795 -0.180544061755 0
0.121816570989 -0.188970495719 0
0.122884599362 -0.192740467879 0
0.120303062872 -0.195705672904 0
0.118248564453 -0.188540643049 0
0.119616098795 -0.18797542777 0
0.118928552467 -0.197359611875 0
0.118276846173 -0.193129235634 0
0.118534293324 -0.187650725209 0
0.119637328475 -0.183947697855 0
0.118670862077 -0.1881149524 0
0.117853695685 -0.191491563387 0
0.11797011337 -0.180540771503 0
0.117792806531 -0.181531402756 0
0.11679750997 -0.195955900807 0
0.123117761715 -0.196025072004 0
0.12361432815 -0.195940272727 0
0.116322925196 -0.195889783374 0
0.12030940164 -0.177711618173 0
0.120222916173 -0.181028469986 0
0.121288336782 -0.18766590321 0
0.119814358431 -0.182789799123 0
0.122045033771 -0.194627169162 0
0.118562440334 -0.197715573357 0
0.123059638567 -0.193516129964 0
0.120188312272 -0.183706449083 0
0.120041397433 -0.185817167937 0
0.121140874419 -0.187246874414 0
0.118435794866 -0.19017075149 0