# vtk DataFile Version 2.0
Generated with Solid Solver
ASCII
DATASET UNSTRUCTURED_GRID
POINTS 999 float 
0.2 4.325 0.0
1.4 4.325 0.0
1.4 4.825 0.0
0.2 4.825 0.0
1.4 4.34523264049 0.0
1.4 4.36751203886 0.0
1.4 4.39204525371 0.0
1.4 4.4190602782 0.0
1.4 4.44880817466 0.0
1.4 4.48156541084 0.0
1.4 4.51763640748 0.0
1.4 4.5573564007 0.0
1.4 4.60109451608 0.0
1.4 4.64925723872 0.0
1.4 4.70229217343 0.0
1.4 4.76069218095 0.0
1.33333333333 4.825 0.0
1.26666666667 4.825 0.0
1.2 4.825 0.0
1.13333333333 4.825 0.0
1.06666666667 4.825 0.0
1.0 4.825 0.0
0.933333333334 4.825 0.0
0.866666666668 4.825 0.0
0.800000000001 4.825 0.0
0.733333333334 4.825 0.0
0.666666666668 4.825 0.0
0.600000000001 4.825 0.0
0.533333333334 4.825 0.0
0.466666666667 4.825 0.0
0.4 4.825 0.0
0.333333333334 4.825 0.0
0.266666666667 4.825 0.0
0.2 4.76069218095 0.0
0.2 4.70229217343 0.0
0.2 4.64925723872 0.0
0.2 4.60109451608 0.0
0.2 4.5573564007 0.0
0.2 4.51763640748 0.0
0.2 4.48156541084 0.0
0.2 4.44880817466 0.0
0.2 4.4190602782 0.0
0.2 4.39204525371 0.0
0.2 4.36751203886 0.0
0.2 4.34523264049 0.0
0.212131543907 4.30926329506 0.0
0.224675715302 4.29385348652 0.0
0.23762369102 4.27878141198 0.0
0.250966423879 4.26405760374 0.0
0.264694484585 4.24969246611 0.0
0.278798324214 4.23569599189 0.0
0.293267939266 4.22207810803 0.0
0.308093289028 4.20884826442 0.0
0.323263842145 4.19601585877 0.0
0.338769084145 4.18358978512 0.0
0.354597997314 4.17157887342 0.0
0.37073960121 4.15999145532 0.0
0.387182441982 4.14883575334 0.0
0.403915091795 4.13811952025 0.0
0.420925712897 4.12785033813 0.0
0.438202430937 4.11803537461 0.0
0.455733079095 4.10868154223 0.0
0.473505374364 4.09979539439 0.0
0.491506842655 4.09138316882 0.0
0.509724826085 4.0834507802 0.0
0.528146580414 4.07600377808 0.0
0.546759103951 4.06904741762 0.0
0.56554943677 4.06258654322 0.0
0.584504260001 4.05662573401 0.0
0.60361041518 4.0511691282 0.0
0.622854334779 4.04622060039 0.0
0.642222678753 4.04178358113 0.0
0.661701681839 4.03786122392 0.0
0.681277836375 4.03445624851 0.0
0.700937245817 4.03157107217 0.0
0.720666255912 4.02920769845 0.0
0.740450894784 4.02736780161 0.0
0.76027736978 4.02605266363 0.0
0.780131702711 4.02526321235 0.0
0.799999999998 4.025 0.0
0.819868297285 4.02526321235 0.0
0.839722630216 4.02605266363 0.0
0.859549105212 4.02736780161 0.0
0.879333744085 4.02920769845 0.0
0.89906275418 4.03157107217 0.0
0.918722163621 4.03445624851 0.0
0.938298318157 4.03786122392 0.0
0.957777321244 4.04178358113 0.0
0.977145665218 4.04622060039 0.0
0.996389584817 4.0511691282 0.0
1.01549574 4.05662573401 0.0
1.03445056323 4.06258654322 0.0
1.05324089605 4.06904741762 0.0
1.07185341958 4.07600377808 0.0
1.09027517391 4.0834507802 0.0
1.10849315734 4.09138316882 0.0
1.12649462563 4.09979539439 0.0
1.1442669209 4.10868154222 0.0
1.16179756906 4.1180353746 0.0
1.1790742871 4.12785033813 0.0
1.1960849082 4.13811952024 0.0
1.21281755802 4.14883575334 0.0
1.22926039879 4.15999145532 0.0
1.24540200269 4.17157887342 0.0
1.26123091585 4.18358978512 0.0
1.27673615785 4.19601585877 0.0
1.29190671097 4.20884826442 0.0
1.30673206073 4.22207810803 0.0
1.32120167579 4.23569599189 0.0
1.33530551541 4.24969246611 0.0
1.34903357612 4.26405760374 0.0
1.36237630898 4.27878141198 0.0
1.3753242847 4.29385348652 0.0
1.38786845609 4.30926329506 0.0
1.05632730172 4.46025283906 0.0
0.549964048968 4.4630053958 0.0
0.806135520676 4.31186690218 0.0
0.603895783049 4.26079310371 0.0
1.22984770884 4.38318704125 0.0
0.3703382852 4.38423552752 0.0
0.995322815839 4.25565031136 0.0
0.728315816804 4.1765935937 0.0
0.872128173905 4.17288724072 0.0
1.14059401893 4.27298468684 0.0
0.461553191009 4.27181671009 0.0
0.784706775856 4.56821390922 0.0
0.398287125272 4.57945970538 0.0
1.20625306554 4.58334743514 0.0
0.624100842742 4.1589824436 0.0
0.5257453845 4.18811776279 0.0
0.978502430793 4.15488737058 0.0
1.07419209812 4.18825154482 0.0
0.364313698077 4.28677035763 0.0
1.23509538257 4.28681716733 0.0
0.68124123937 4.39284548972 0.0
1.31679378691 4.35012066749 0.0
0.283206213094 4.35012066749 0.0
0.791498533126 4.11467141721 0.0
0.931481076052 4.3801344917 0.0
0.966719065571 4.62778042839 0.0
0.684451667517 4.11068036752 0.0
0.618335406951 4.62686910993 0.0
0.450982331762 4.19686171732 0.0
0.915674266355 4.10995633851 0.0
1.14900051594 4.19689012964 0.0
1.30193709687 4.4481448133 0.0
0.298574667609 4.44816296922 0.0
1.05734787542 4.34990107617 0.0
0.539273225177 4.35252599628 0.0
0.709896798149 4.27721026287 0.0
0.895708916005 4.26924194389 0.0
0.813273511364 4.43835766235 0.0
0.559289631452 4.13230879113 0.0
1.04001407307 4.13281539633 0.0
0.801161810585 4.23146244955 0.0
0.665113819616 4.52056650186 0.0
0.852577362173 4.09111846388 0.0
0.390256727869 4.2242806298 0.0
1.20974450479 4.22428104599 0.0
0.921542541183 4.52778058719 0.0
1.14030889032 4.36437344809 0.0
1.15600477272 4.46808538305 0.0
0.435243219029 4.4750581257 0.0
0.462045157798 4.36654654286 0.0
0.735806812738 4.08472269746 0.0
1.30082934537 4.29793772796 0.0
0.299170654625 4.29793772796 0.0
0.533651712118 4.26265983853 0.0
0.666130919144 4.21652131559 0.0
1.0676097303 4.26179469382 0.0
1.08054433577 4.58530946155 0.0
0.506773767255 4.56568295079 0.0
0.626745312844 4.10124420826 0.0
0.933845304214 4.2106954732 0.0
0.293717639664 4.55175000185 0.0
0.312505022079 4.66426411351 0.0
1.3058164124 4.55154930624 0.0
1.29054387065 4.66302765963 0.0
0.973467966326 4.09941619478 0.0
0.487935413164 4.15087084015 0.0
0.461549079751 4.68836834982 0.0
1.11203248746 4.15093503889 0.0
1.14453515393 4.70617370303 0.0
0.840217564202 4.68891146633 0.0
0.585347033288 4.20539048534 0.0
0.619177396637 4.34227576306 0.0
0.331644410315 4.24962190462 0.0
1.26835558968 4.24962190462 0.0
1.01536156978 4.19987473052 0.0
0.809331033562 4.07065709122 0.0
0.982321540791 4.33437358971 0.0
0.725600576914 4.66999651799 0.0
0.812291456186 4.16642942492 0.0
0.335887692543 4.33918235669 0.0
1.26344844681 4.34017131907 0.0
1.23449730504 4.49457441524 0.0
1.34334172095 4.40539551957 0.0
0.256658279045 4.40539551957 0.0
0.741646926828 4.34287908527 0.0
0.674799084703 4.16673768522 0.0
1.18647435526 4.30955189749 0.0
0.360563250283 4.49596479569 0.0
0.873716483853 4.33845499203 0.0
0.418704489949 4.31146264283 0.0
0.492670911224 4.22931614809 0.0
0.403480880356 4.19046776931 0.0
1.19651541215 4.1904686246 0.0
0.728649253738 4.46214546491 0.0
1.00883674467 4.40174664879 0.0
1.11035034557 4.23161841276 0.0
0.261968539765 4.3130079512 0.0
1.33803146023 4.3130079512 0.0
0.74649980488 4.1318354354 0.0
0.927597725248 4.1577597079 0.0
0.892956618256 4.07619338913 0.0
0.659794281787 4.07951387326 0.0
0.587663534405 4.09486537006 0.0
0.942353209926 4.07935300973 0.0
1.01493747319 4.09476013719 0.0
0.613130017774 4.41369803882 0.0
0.449373501074 4.15377191978 0.0
0.514840228377 4.12225850006 0.0
0.497057592 4.41333092106 0.0
1.15061382426 4.15379293084 0.0
1.08514419473 4.12228328152 0.0
0.745617635771 4.23098957592 0.0
0.87523452213 4.59853036549 0.0
0.855262884783 4.2258970831 0.0
1.01126200032 4.53280064162 0.0
1.09391916408 4.40632408872 0.0
1.04436265455 4.71482000827 0.0
0.314320181089 4.38773968607 0.0
1.28649331902 4.38743720145 0.0
0.771211579291 4.06316862024 0.0
0.432259099658 4.24006002157 0.0
0.698583889427 4.07144353526 0.0
1.16802128371 4.238862881 0.0
1.09587629216 4.3086676659 0.0
1.35920470355 4.35666960471 0.0
0.240795296449 4.35666960471 0.0
0.504003580654 4.30815758118 0.0
0.579942709371 4.5342075073 0.0
0.875915224914 4.12815792528 0.0
0.426503136644 4.40717733008 0.0
0.57541416445 4.30365301522 0.0
0.683877978289 4.33161848113 0.0
0.888061695889 4.44633509246 0.0
0.26012287522 4.49859249103 0.0
1.33987712478 4.49859249103 0.0
0.801393572636 4.37060096582 0.0
0.558460082533 4.72496728209 0.0
1.1741923373 4.41132830101 0.0
0.83220012886 4.12779415912 0.0
1.02815069622 4.30053276509 0.0
0.948308583502 4.2880204454 0.0
0.846588933095 4.50834596945 0.0
0.343666800815 4.43485820652 0.0
1.25632767671 4.43480360053 0.0
0.97849585731 4.47031535602 0.0
1.10170977548 4.51507265998 0.0
0.662193131828 4.26809398492 0.0
0.400503668388 4.26881657105 0.0
1.20117145985 4.26130427377 0.0
0.350957892513 4.21796558019 0.0
1.24904210749 4.21796558019 0.0
0.771964652188 4.18905379403 0.0
0.932165148285 4.72736281402 0.0
0.373672364094 4.73321357765 0.0
0.760245937722 4.28409350779 0.0
0.848718469252 4.05767763075 0.0
1.23385612561 4.7358294747 0.0
0.846421485813 4.28065918421 0.0
0.651597058631 4.13043284014 0.0
0.650489852552 4.72138045504 0.0
0.58457834847 4.16375088261 0.0
0.48701309933 4.18859927013 0.0
0.708495738406 4.58856947756 0.0
1.11203398596 4.18878062515 0.0
0.54865558244 4.10250047869 0.0
1.05126102377 4.10234629471 0.0
0.300013757486 4.26259646442 0.0
1.29998624251 4.26259646442 0.0
0.9465032388 4.12718070354 0.0
0.708587583337 4.14146095907 0.0
0.973348904468 4.19537871864 0.0
0.628721855632 4.19538356945 0.0
0.380175010018 4.34021880077 0.0
0.662092932411 4.45899041267 0.0
1.05133526787 4.22221992007 0.0
0.528087045766 4.64327882187 0.0
1.22233124543 4.33521693908 0.0
1.19001193434 4.36273586668 0.0
0.853024099244 4.39544003492 0.0
0.542800296246 4.22324366905 0.0
0.247706318737 4.45239119247 0.0
1.35229368126 4.45239119247 0.0
0.599153768578 4.12953797005 0.0
1.01616570494 4.16227683178 0.0
0.744705786938 4.40569544575 0.0
1.31929001115 4.73702550052 0.0
0.777615355331 4.15113602511 0.0
1.33132411895 4.60631378639 0.0
0.265621610877 4.60975488866 0.0
0.532023338888 4.15374454388 0.0
1.0697792195 4.15241429251 0.0
0.286371037106 4.73010312914 0.0
0.497725885905 4.50153668256 0.0
0.46053455822 4.31587947599 0.0
0.433799237968 4.54629400991 0.0
0.388624781906 4.65094200004 0.0
0.554823673752 4.40451940232 0.0
1.1421595646 4.31818301431 0.0
1.14760043966 4.61655103139 0.0
1.21258698805 4.65320200685 0.0
1.16279096046 4.53292621409 0.0
0.995762647814 4.12508772517 0.0
0.456229040627 4.61456685246 0.0
0.707289391156 4.21520271873 0.0
0.763036833302 4.74285445535 0.0
0.78386198569 4.49787013126 0.0
[...]
POINT_DATA 999
VECTORS Displacement float
0.0771999051866 -0.196167012346 0
0.0826657142174 -0.196257700075 0
0.08 -0.2 0
0.08 -0.2 0
0.0829031652375 -0.196241264302 0
0.0831320859955 -0.196219576046 0
0.083338001964 -0.196194323289 0
0.0835140095508 -0.196185352146 0
0.0836236702401 -0.19620234351 0
0.0836957643388 -0.196255762252 0
0.0836708890481 -0.196354230574 0
0.0835417494277 -0.196507328203 0
0.0832926907223 -0.196756443536 0
0.0828722329703 -0.197126233294 0
0.0822587026811 -0.197682758808 0
0.081369177335 -0.198526935662 0
0.08 -0.2 0
0.08 -0.2 0
0.08 -0.2 0
0.08 -0.2 0
0.08 -0.2 0
0.08 -0.2 0
0.08 -0.2 0
0.08 -0.2 0
0.08 -0.2 0
0.08 -0.2 0
0.08 -0.2 0
0.08 -0.2 0
0.08 -0.2 0
0.08 -0.2 0
0.08 -0.2 0
0.08 -0.2 0
0.08 -0.2 0
0.0786224336898 -0.198512737477 0
0.0777195859694 -0.197652814998 0
0.0770651599365 -0.197081484971 0
0.0766467140573 -0.196696844682 0
0.0763890611312 -0.196438028848 0
0.0762471409606 -0.196278188529 0
0.0762116212398 -0.196176052411 0
0.0762746286712 -0.196119260172 0
0.0763760591782 -0.196099503779 0
0.0765446686869 -0.196106297278 0
0.0767439227235 -0.196130110534 0
0.0769671045544 -0.196150929557 0
0.0773924968977 -0.196040680362 0
0.0776046623201 -0.195898974791 0
0.0778340344865 -0.195733490953 0
0.0780852637533 -0.195544733899 0
0.0783571822795 -0.195324597623 0
0.0786417443643 -0.195067808162 0
0.0789433820511 -0.19477720637 0
0.0792745331891 -0.194449117728 0
0.0796319343426 -0.1940541398 0
0.0799966039911 -0.193623837171 0
0.0803879879799 -0.193124573393 0
0.0808273786544 -0.19254572416 0
0.0812889445094 -0.191845390644 0
0.0818196814913 -0.19094980898 0
0.0823343837107 -0.189845678331 0
0.0827537746545 -0.188746181078 0
0.0830684153873 -0.187681900235 0
0.0832982833389 -0.186630822203 0
0.0834560582485 -0.185636909152 0
0.083551539981 -0.184666572763 0
0.0835892027964 -0.183754928145 0
0.0835647851107 -0.182868233781 0
0.0834958461668 -0.182030177934 0
0.0833604312002 -0.181258882878 0
0.0831770751437 -0.180592372978 0
0.0829542368117 -0.179969024253 0
0.0827074766166 -0.179405979099 0
0.0824255025666 -0.178904119173 0
0.0821261383942 -0.178468276754 0
0.081794336695 -0.17808797754 0
0.0814466287434 -0.177779062637 0
0.0810743306049 -0.177529092807 0
0.0806951315723 -0.177341401908 0
0.0803012839592 -0.177217093184 0
0.079865700166 -0.177107648267 0
0.0794416012672 -0.177155431697 0
0.0790384413398 -0.17731780328 0
0.0786593395478 -0.177512366506 0
0.0782952943962 -0.177765881241 0
0.0779477200014 -0.17807880877 0
0.0776164366708 -0.178458045417 0
0.0773075313266 -0.178903768393 0
0.0770364761012 -0.179402815534 0
0.07679360225 -0.179971652569 0
0.0765762936051 -0.180603320334 0
0.0764056230826 -0.181289942594 0
0.0762746865727 -0.182043761317 0
0.0761925956602 -0.182841061188 0
0.0761520383449 -0.183700215473 0
0.0761936361239 -0.184635172662 0
0.0762879597186 -0.185608687768 0
0.0764459494915 -0.186606607368 0
0.0766723243259 -0.187655757472 0
0.0769882083398 -0.188730341156 0
0.0773890007137 -0.189811860619 0
0.0778851999783 -0.190925494932 0
0.0785525649693 -0.19203311277 0
0.0790394097408 -0.192719628355 0
0.0794639655482 -0.193238313217 0
0.0798503421659 -0.19372017714 0
0.08021384404 -0.194143287673 0
0.0805708798053 -0.194534232857 0
0.0809033556053 -0.194861005893 0
0.0812069401567 -0.195151094946 0
0.08149389899 -0.195408062902 0
0.0817682569971 -0.195628831238 0
0.0820221842411 -0.195818687076 0
0.0822544734296 -0.195985592641 0
0.0824697247 -0.196129105987 0
0.0823524504456 -0.192492755914 0
0.077610614406 -0.192461613908 0
0.079968440882 -0.185928468225 0
0.0789271718207 -0.186231864265 0
0.0831038127478 -0.194007564818 0
0.0767806945382 -0.193960680522 0
0.0808456248301 -0.186065386069 0
0.0800050527847 -0.181859829209 0
0.0797609007982 -0.181749494082 0
0.0817756683386 -0.190333510513 0
0.078103510215 -0.190216543434 0
0.0798359348363 -0.19378059495 0
0.0771340125985 -0.196285424018 0
0.0827985270045 -0.196403859734 0
0.0804613412127 -0.182881682081 0
0.0799174776648 -0.186349536067 0
0.0792368746326 -0.182828633338 0
0.0798859772597 -0.186340564968 0
0.0777081132099 -0.193223767674 0
0.0821529256384 -0.193277322518 0
0.0787992602339 -0.18906095177 0
0.082954512041 -0.195228286839 0
0.0769191159373 -0.195153889652 0
0.0799529345759 -0.179668657246 0
0.081172731685 -0.188801311607 0
0.0812170974999 -0.195767006299 0
0.0808982240681 -0.180426871639 0
0.0786290887732 -0.195806673632 0
0.0795786767401 -0.189320449368 0
0.0788606807655 -0.180401791864 0
0.0802462435274 -0.189334563602 0
0.0835103180059 -0.195577944458 0
0.0763935824625 -0.195513837857 0
0.0820730662294 -0.189872867896 0
0.0777611743667 -0.189988010574 0
0.0793832487064 -0.185197727453 0
0.0804376980016 -0.184999282959 0
0.0800836710932 -0.189961856583 0
0.0813487868771 -0.183884310277 0
0.078435459244 -0.183860666664 0
0.0799104735397 -0.183309360585 0
0.0786684672807 -0.192848055923 0
0.0792964642237 -0.179165440417 0
0.0788556786954 -0.192016425464 0
0.0809962777041 -0.192099130589 0
0.0811245493252 -0.192970140602 0
0.0826639450474 -0.191941122334 0
0.0829870485589 -0.194035614695 0
0.0768770519928 -0.194238686255 0
0.0772205233829 -0.19189255258 0
0.0806455474257 -0.179090292972 0
0.0823184321872 -0.194807772776 0
0.0775421423288 -0.194729919457 0
0.0785472083825 -0.187930875158 0
0.0796410046095 -0.183821443768 0
0.0812847517697 -0.187947410085 0
0.0821562082129 -0.195499323296 0
0.077608970941 -0.19518118401 0
0.08161733449 -0.181245713955 0
0.0801068075365 -0.183641523643 0
0.0765800163797 -0.196465708136 0
0.0776169374877 -0.197786796438 0
0.0833547799104 -0.19651178699 0
0.082376199227 -0.197798721337 0
0.0781134751114 -0.181208276337 0
0.0810443799765 -0.186913182736 0
0.0783352625506 -0.197767281592 0
0.0787311008106 -0.186896457618 0
0.0814834612288 -0.19811090438 0
0.0802263042814 -0.196954927408 0
0.0796340133655 -0.185082178275 0
0.0784101586028 -0.188304987468 0
0.0783502853796 -0.193893621753 0
0.0815001401864 -0.193976875213 0
0.0800696749222 -0.184943423623 0
0.0797447246071 -0.178382570805 0
0.0814195984463 -0.188111079398 0
0.07950042045 -0.196531087363 0
0.0798615443082 -0.181254785155 0
0.0770524508354 -0.194211849099 0
0.0828289265904 -0.194272355034 0
0.0833090130793 -0.195385072701 0
0.0834036738986 -0.195741296154 0
0.0764844763278 -0.195667931378 0
0.079429392969 -0.187077734516 0
0.0802085756672 -0.182188340734 0
0.0823852536515 -0.192203770991 0
0.0765860694521 -0.195406285366 0
0.0805505799486 -0.18702642507 0
0.0774772946479 -0.192045417434 0
0.0789228480335 -0.188388595495 0
0.0797307014796 -0.191264485708 0
0.0801208037169 -0.191340444366 0
0.0792344299303 -0.190840476932 0
0.0819077966562 -0.190369117831 0
0.0809623811059 -0.188548320034 0
0.0773401983717 -0.195384608985 0
0.082523054512 -0.19546522554 0
0.0802224704256 -0.18036455258 0
0.0794591782295 -0.181954108896 0
0.0786566033797 -0.179154946912 0
0.0816753046713 -0.179989652714 0
0.08218853069 -0.182080804741 0
0.0780572011828 -0.180027052367 0
0.0775414316289 -0.182164663757 0
0.078149853798 -0.190394628654 0
0.0810047338901 -0.188686449526 0
0.0819628563238 -0.185229216637 0
0.0772551478534 -0.192140115855 0
0.0787673172157 -0.188672405699 0
0.0777970841279 -0.185204956015 0
0.0797451407774 -0.183454905679 0
0.080606602798 -0.194697419136 0
0.0800507838796 -0.183296121814 0
0.0818728806936 -0.193751477688 0
0.0825614985296 -0.191858497924 0
0.0810894815121 -0.19796618761 0
0.0766509680357 -0.194895918095 0
0.0832341299549 -0.19497003503 0
0.080295210472 -0.17824982636 0
0.0785546570555 -0.190679386563 0
0.0812797561263 -0.179147457153 0
0.0812732729257 -0.190716780872 0
0.0819969709609 -0.189789387706 0
0.083032276446 -0.195793958971 0
0.0768416164263 -0.195712928521 0
0.0778692999727 -0.189762862661 0
0.0779970781182 -0.193852300366 0
0.0793816284824 -0.180432447591 0
0.0768827617763 -0.193266960419 0
0.0783432283373 -0.188002601636 0
0.078977792187 -0.187162856553 0
0.0808391466031 -0.19044718786 0
0.076313482632 -0.196124039251 0
0.0835994850201 -0.196186906211 0
0.0799483987005 -0.187822746967 0
0.0789877562439 -0.198146058926 0
0.0830230173597 -0.193386596874 0
0.0796700791409 -0.180116593994 0
0.0815047133643 -0.187998299655 0
0.0808715384656 -0.186220849429 0
0.0804245449161 -0.19211893706 0
0.0765250296777 -0.194893768613 0
0.0833755234837 -0.194945632639 0
0.0816965647084 -0.191846730931 0
0.0825765262362 -0.194244805397 0
0.0791691209987 -0.185460282681 0
0.0780068693074 -0.192055957569 0
0.0817267836619 -0.192101462154 0
0.0790318335799 -0.193286810185 0
0.0808138590038 -0.193380229604 0
0.0799092892332 -0.182000057408 0
0.0805701475187 -0.19797663438 0
0.0786575851753 -0.198709176234 0
0.0796707193696 -0.185101908438 0
0.0791160249002 -0.178210209004 0
0.081298070413 -0.198767343394 0
0.0801969492643 -0.185017513219 0
0.0808407990656 -0.181525327894 0
0.0793079363462 -0.197875933078 0
0.0804593875533 -0.183964553389 0
0.0798591590819 -0.187738335968 0
0.0791953135697 -0.194481944202 0
0.0799474316233 -0.187696827501 0
0.0823662576232 -0.183529234511 0
0.0773805283468 -0.183502913209 0
0.0781143807457 -0.194651935615 0
0.0817384622119 -0.194733335046 0
0.0788880436608 -0.181403648075 0
0.0803656754955 -0.180999283326 0
0.079949462079 -0.183872810279 0
0.0798536061686 -0.183834452574 0
0.0771123258421 -0.193307616904 0
0.0785839128753 -0.191160750521 0
0.0805734035722 -0.186493650663 0
0.0782085852051 -0.196620485901 0
0.0827233078156 -0.193369537665 0
0.082859388202 -0.19298186047 0
0.0804553336187 -0.188721937928 0
0.0792086488911 -0.186693449515 0
0.07629914521 -0.195925266815 0
0.0836017079085 -0.195995391498 0
0.0811872695709 -0.182666862767 0
0.0792891430607 -0.183933995651 0
0.0793978467518 -0.189048283274 0
0.0814307871562 -0.198754218161 0
0.0799812105233 -0.180798740106 0
0.0830705121571 -0.197082187285 0
0.076894624602 -0.197073918453 0
0.0808385417498 -0.185306640168 0
0.0788919715483 -0.185321908347 0
0.0784699239325 -0.198657670431 0
0.0773040428445 -0.193953568041 0
0.0775843217299 -0.191022828862 0
0.0770986232404 -0.195468108309 0
0.0777100938438 -0.197440250363 0
0.0776849572997 -0.190984251978 0
0.0823203946646 -0.191167860118 0
0.0823080848612 -0.196571360461 0
0.0822352361457 -0.197497784102 0
0.0828758830929 -0.195231171312 0
0.0785110844225 -0.182413219781 0
0.0776520490163 -0.196493678819 0
0.0797367847931 -0.18326367786 0
0.0798445231391 -0.198229356712 0
0.0797990297335 -0.191766855432 0
0.0809581725625 -0.187315747724 0
0.0806879433012 -0.190249295057 0
0.0800344998797 -0.183110891432 0
0.0791173882477 -0.190260200528 0
0.0834766383188 -0.195877883626 0
0.0808852024978 -0.17845193771 0
0.0777466544151 -0.194070858292 0
0.082111812323 -0.194147791634 0
0.079636890538 -0.192497075102 0
0.0802114978627 -0.19261024721 0
0.0781005607935 -0.192134139734 0
0.0769827954103 -0.192994238197 0
0.0802414143816 -0.17914413246 0
0.0791489017133 -0.193034757109 0
0.0782751999665 -0.1929939358 0
0.0815791719426 -0.193071275383 0
0.0764485094146 -0.195780689247 0
0.0832350522345 -0.194503723956 0
0.0805392871413 -0.18502441486 0
0.0777523670795 -0.195194897716 0
0.0821047216056 -0.195276276794 0
0.0816062448755 -0.19706898992 0
0.0766852348265 -0.194450571313 0
0.0771130978516 -0.195753445169 0
0.0827543048051 -0.195836977045 0
0.0822149632388 -0.1807831245 0
0.0799130047719 -0.182324003694 0
0.0828853206346 -0.196961613518 0
0.077052398959 -0.196925312491 0
0.0783539129093 -0.189006190208 0
0.0806757276367 -0.179960134175 0
0.0799275210872 -0.184319906951 0
0.0796598004372 -0.179230713472 0
0.0823871299094 -0.190882451435 0
0.081513337358 -0.189078877789 0
0.0787416951631 -0.186900126238 0
0.0781559795207 -0.17912370102 0
0.0775869988754 -0.180826113371 0
0.0827275364539 -0.193333250678 0
0.077097237054 -0.194756015536 0
0.0827732570998 -0.194827780544 0
0.0812461693371 -0.194274609127 0
0.0774808712826 -0.190883570855 0
0.078873469101 -0.186639358912 0
0.079531047732 -0.184995559917 0
0.078570948609 -0.194237903506 0
0.0798470750612 -0.195881147499 0
0.0818649814865 -0.186985061399 0
0.0778936890279 -0.186964201032 0
0.0787774502083 -0.189533451634 0
0.0809783120007 -0.189516245515 0
0.0764207548165 -0.196448874297 0
0.0835075116937 -0.196505687959 0
0.0792648584142 -0.185195229672 0
0.0809980172522 -0.186796854441 0
0.0800997492574 -0.185270146997 0
0.0816912507747 -0.195455560122 0
0.0787359658314 -0.178466298077 0
0.0813282680755 -0.190513922981 0
0.0832675404237 -0.195929829963 0
0.0766133933445 -0.195848817317 0
0.0793202394367 -0.190557761554 0
0.0790641135305 -0.179703779914 0
0.0805246800235 -0.190601672187 0
0.0794721376028 -0.184342512003 0
0.0806923153583 -0.196376853694 0
0.0808506296355 -0.198862290077 0
0.0822409177143 -0.190974668062 0
0.0780079541833 -0.189519342507 0
0.0832589389083 -0.195355755452 0
0.0766251002309 -0.195286064549 0
0.083171563227 -0.196177151975 0
0.0767482772648 -0.196101228878 0
0.0793098148716 -0.181067671278 0
0.0820209898713 -0.191410772722 0
0.0817939260335 -0.179183094189 0
0.0799681906361 -0.177797953986 0
0.0797400214014 -0.181081492797 0
0.0770014910129 -0.193227449449 0
0.0778503298638 -0.19151651175 0
0.0788668080914 -0.193948549266 0
0.0809789271355 -0.194035904028 0
0.0802284067525 -0.187207257765 0
0.0802777011699 -0.184074660213 0
0.0794444920764 -0.177967379775 0
0.0823893850858 -0.197852194264 0
0.0773164488699 -0.193861342065 0
0.0825340619746 -0.193931403249 0
0.0817191695559 -0.189067357585 0
0.0773855774555 -0.197627042243 0
0.0791869978388 -0.198928736561 0
0.0828132161693 -0.19253549662 0
0.0780884532592 -0.195588869592 0
0.0801822368632 -0.182835253986 0
0.0815225537149 -0.189090195985 0
0.0816839599713 -0.188690823067 0
0.0803412138209 -0.184927420852 0
0.0811940571093 -0.187050306632 0
0.0784608588341 -0.189144214748 0
0.0768281685533 -0.195179594301 0
0.0813046356606 -0.180788315493 0
0.0810526296835 -0.182128772602 0
0.0768606371158 -0.19474162204 0
0.0830157711857 -0.194824673357 0
0.0785468200483 -0.194430496672 0
0.0813014691046 -0.194514148064 0
0.0797522541219 -0.182222513952 0
0.0822562649263 -0.192700480598 0
0.0822731438781 -0.193702892567 0
0.0796259275128 -0.182860610251 0
0.0781438032025 -0.188738287119 0
0.0794464430908 -0.185814988953 0
0.0773852529587 -0.192880009531 0
0.0770627465953 -0.195471032336 0
0.0828060980735 -0.195550585908 0
0.0802415119703 -0.19842215784 0
0.0804834285731 -0.186367473644 0
0.0804467588002 -0.187979159435 0
0.0770889423557 -0.192482093058 0
0.0804485546967 -0.185770858839 0
0.0784233401279 -0.180765171155 0
0.0772813501386 -0.192923186833 0
0.0805380088045 -0.187210965899 0
0.0808802223469 -0.19906891221 0
0.0827537548141 -0.182647137243 0
0.0793534344844 -0.187976866307 0
0.0791468863483 -0.196189429799 0
0.0800572834491 -0.181075979363 0
0.0793932471072 -0.186477639146 0
0.0797850793837 -0.184083846816 0
0.0827092783812 -0.1842609596 0
0.0769571960897 -0.182642870561 0
0.0793268458397 -0.187201303617 0
0.0770413279857 -0.184226104185 0
0.0798720872892 -0.180424659633 0
0.0800508650462 -0.184020873838 0
0.0800396607326 -0.178702892277 0
0.0835191082606 -0.195983893632 0
0.0763735036586 -0.195907567547 0
0.0826628269451 -0.181170692974 0
0.0823122778966 -0.180055513123 0
0.0797126310963 -0.198788822909 0
0.0774605140306 -0.180053027097 0
0.0771060788353 -0.181219570946 0
0.0825283715436 -0.186107071581 0
0.0820296339799 -0.187945060435 0
0.0799723389051 -0.182421765478 0
0.0772239147786 -0.186082956991 0
0.0777214605448 -0.187925402668 0
0.0831526265077 -0.194866009797 0
0.0814287919758 -0.196610983377 0
0.0797542073589 -0.186914621053 0
0.0807017418002 -0.177944370569 0
0.0785395999896 -0.179701712526 0
0.0813158465399 -0.178395613744 0
0.0805654511648 -0.181263860074 0
0.0829225562847 -0.193894820642 0
0.0832542171614 -0.195654917713 0
0.0766273011036 -0.195579396177 0
0.0776356396149 -0.193615696474 0
0.0834093139074 -0.195342163156 0
0.076483467001 -0.195278427582 0
0.080317551876 -0.193606714719 0
0.0792327003038 -0.185621087478 0
0.0805176031856 -0.198768851998 0
0.0794256321713 -0.178711310982 0
0.0807387152346 -0.1884076627 0
0.0804019902911 -0.191754239854 0
0.0794571865217 -0.191882972471 0
0.0767943421282 -0.194371592688 0
0.0807247613792 -0.18615012475 0
0.0782291285673 -0.182980486056 0
0.0801128482593 -0.183810890723 0
0.0825149905854 -0.195649645984 0
0.0798611583106 -0.1825217298 0
0.0791085949953 -0.186058991224 0
0.081288320264 -0.179812551999 0
0.079901824177 -0.182161028285 0
0.0767058378586 -0.194044205596 0
0.0790230273189 -0.189774584143 0
0.0794773226968 -0.180013792632 0
0.0796322793943 -0.190234447004 0
0.0790666871979 -0.187904739221 0
0.0817733770822 -0.184320716721 0
0.0800047334905 -0.190140360316 0
0.0798225024026 -0.190165208297 0
0.0779893095668 -0.184300214592 0
0.0802098030651 -0.186097743097 0
0.0803769955983 -0.17962302149 0
0.0818546820474 -0.183111085729 0
0.0834610209768 -0.195430909162 0
0.076451024339 -0.195351668201 0
0.0791917157589 -0.199139118366 0
0.0796235465336 -0.18380837958 0
0.0831864683213 -0.194068085643 0
0.0801356170288 -0.179781215551 0
0.0782829921368 -0.178610416277 0
0.0771641260204 -0.195122138652 0
0.082702809927 -0.195199012833 0
0.0775386274278 -0.195618559668 0
0.0823213473402 -0.195702191742 0
0.0790415332163 -0.179124151457 0
0.0772007172761 -0.192293738324 0
0.0816019243911 -0.18199540259 0
0.0830918646445 -0.195812371073 0
0.0805880767635 -0.185927730072 0
0.0786272512817 -0.181717375886 0
0.0830872330043 -0.194435896786 0
0.0769713061088 -0.195907281236 0
0.0828991492204 -0.195992607249 0
0.0807125685456 -0.193197543578 0
0.0819894943781 -0.191581582118 0
0.0812172529774 -0.185844789779 0
0.0773939433296 -0.194343643749 0
0.082470043149 -0.19441680652 0
0.0784443785347 -0.191595435338 0
0.0798541695488 -0.182888582279 0
0.0813687961562 -0.191683806269 0
0.0805872837551 -0.185215645644 0
0.080550285782 -0.178560527177 0
0.0774906468048 -0.191087651581 0
0.0785620602663 -0.185854835699 0
0.0792292759374 -0.191382567146 0
0.0806221930131 -0.191454285414 0
0.0815827055171 -0.193112792605 0
0.0784972563204 -0.189371547437 0
0.0791207647263 -0.199243114679 0
0.0781394025687 -0.195032817162 0
0.0817131690855 -0.195115085424 0
0.0808508934321 -0.179396790461 0
0.0813311517964 -0.189539897379 0
0.0784242533738 -0.189523764965 0
0.0795986267139 -0.184510173 0
0.0799355007941 -0.182950541347 0
0.0793574538551 -0.198590591065 0
0.0793179170578 -0.188714134012 0
0.0788935356859 -0.191735069796 0
0.0826194265605 -0.192116755486 0
0.0804527885362 -0.190847664549 0
0.0805108882738 -0.188779605518 0
0.08023003903 -0.184387654592 0
0.0835165762231 -0.195732456731 0
0.076379988577 -0.195665161281 0
0.0787905215625 -0.187879437384 0
0.0779980265601 -0.193568205943 0
0.081854889056 -0.193636015246 0
0.0819494211633 -0.190066598412 0
0.0785664470675 -0.193384764435 0
0.0812649464672 -0.193456033435 0
0.076260580944 -0.196079536899 0
0.083647078294 -0.196149115991 0
0.0786703626578 -0.186989132919 0
0.0809489922198 -0.197222220608 0
0.0829479186276 -0.193339318074 0
0.0808265951161 -0.191856278727 0
0.0813691546564 -0.189475684363 0
0.0799352305945 -0.182550068201 0
0.0796072390618 -0.185676260231 0
0.0777288360602 -0.179368503201 0
0.0820112026663 -0.192716411342 0
0.08326334314 -0.194562703094 0
0.0766275241477 -0.194510840219 0
0.0776614771571 -0.192250176121 0
0.0779139673187 -0.190030026167 0
0.0802666773218 -0.184322795088 0
0.0785770148041 -0.190181368005 0
0.0795640097556 -0.181369746517 0
0.0815421635665 -0.189941399866 0
0.0809563340459 -0.189507829524 0
0.0796222360397 -0.194735566499 0
0.081072589131 -0.188021914317 0
0.0818188183032 -0.180556881378 0
0.081794145538 -0.188977762788 0
0.0828642780706 -0.192747768034 0
0.0802946929824 -0.195708995946 0
0.0782248294334 -0.188551634642 0
0.0795948293488 -0.187984091966 0
0.0789236388412 -0.197361890809 0
0.0782636587299 -0.193135371482 0
0.078506868037 -0.187663545782 0
0.079609585151 -0.183958811772 0
0.0786482397019 -0.188125008954 0
0.0778364963034 -0.191499612697 0