# vtk DataFile Version 2.0
Generated with Solid Solver
ASCII
DATASET UNSTRUCTURED_GRID
POINTS 999 float 
0.2 4.325 0.0
1.4 4.325 0.0
1.4 4.825 0.0
0.2 4.825 0.0
1.4 4.34523264049 0.0
1.4 4.36751203886 0.0
1.4 4.39204525371 0.0
1.4 4.4190602782 0.0
1.4 4.44880817466 0.0
1.4 4.48156541084 0.0
1.4 4.51763640748 0.0
1.4 4.5573564007 0.0
1.4 4.60109451608 0.0
1.4 4.64925723872 0.0
1.4 4.70229217343 0.0
1.4 4.76069218095 0.0
1.33333333333 4.825 0.0
1.26666666667 4.825 0.0
1.2 4.825 0.0
1.13333333333 4.825 0.0
1.06666666667 4.825 0.0
1.0 4.825 0.0
0.933333333334 4.825 0.0
0.866666666668 4.825 0.0
0.800000000001 4.825 0.0
0.733333333334 4.825 0.0
0.666666666668 4.825 0.0
0.600000000001 4.825 0.0
0.533333333334 4.825 0.0
0.466666666667 4.825 0.0
0.4 4.825 0.0
0.333333333334 4.825 0.0
0.266666666667 4.825 0.0
0.2 4.76069218095 0.0
0.2 4.70229217343 0.0
0.2 4.64925723872 0.0
0.2 4.60109451608 0.0
0.2 4.5573564007 0.0
0.2 4.51763640748 0.0
0.2 4.48156541084 0.0
0.2 4.44880817466 0.0
0.2 4.4190602782 0.0
0.2 4.39204525371 0.0
0.2 4.36751203886 0.0
0.2 4.34523264049 0.0
0.212131543907 4.30926329506 0.0
0.224675715302 4.29385348652 0.0
0.23762369102 4.27878141198 0.0
0.250966423879 4.26405760374 0.0
0.264694484585 4.24969246611 0.0
0.278798324214 4.23569599189 0.0
0.293267939266 4.22207810803 0.0
0.308093289028 4.20884826442 0.0
0.323263842145 4.19601585877 0.0
0.338769084145 4.18358978512 0.0
0.354597997314 4.17157887342 0.0
0.37073960121 4.15999145532 0.0
0.387182441982 4.14883575334 0.0
0.403915091795 4.13811952025 0.0
0.420925712897 4.12785033813 0.0
0.438202430937 4.11803537461 0.0
0.455733079095 4.10868154223 0.0
0.473505374364 4.09979539439 0.0
0.491506842655 4.09138316882 0.0
0.509724826085 4.0834507802 0.0
0.528146580414 4.07600377808 0.0
0.546759103951 4.06904741762 0.0
0.56554943677 4.06258654322 0.0
0.584504260001 4.05662573401 0.0
0.60361041518 4.0511691282 0.0
0.622854334779 4.04622060039 0.0
0.642222678753 4.04178358113 0.0
0.661701681839 4.03786122392 0.0
0.681277836375 4.03445624851 0.0
0.700937245817 4.03157107217 0.0
0.720666255912 4.02920769845 0.0
0.740450894784 4.02736780161 0.0
0.76027736978 4.02605266363 0.0
0.780131702711 4.02526321235 0.0
0.799999999998 4.025 0.0
0.819868297285 4.02526321235 0.0
0.839722630216 4.02605266363 0.0
0.859549105212 4.02736780161 0.0
0.879333744085 4.02920769845 0.0
0.89906275418 4.03157107217 0.0
0.918722163621 4.03445624851 0.0
0.938298318157 4.03786122392 0.0
0.957777321244 4.04178358113 0.0
0.977145665218 4.04622060039 0.0
0.996389584817 4.0511691282 0.0
1.01549574 4.05662573401 0.0
1.03445056323 4.06258654322 0.0
1.05324089605 4.06904741762 0.0
1.07185341958 4.07600377808 0.0
1.09027517391 4.0834507802 0.0
1.10849315734 4.09138316882 0.0
1.12649462563 4.09979539439 0.0
1.1442669209 4.10868154222 0.0
1.16179756906 4.1180353746 0.0
1.1790742871 4.12785033813 0.0
1.1960849082 4.13811952024 0.0
1.21281755802 4.14883575334 0.0
1.22926039879 4.15999145532 0.0
1.24540200269 4.17157887342 0.0
1.26123091585 4.18358978512 0.0
1.27673615785 4.19601585877 0.0
1.29190671097 4.20884826442 0.0
1.30673206073 4.22207810803 0.0
1.32120167579 4.23569599189 0.0
1.33530551541 4.24969246611 0.0
1.34903357612 4.26405760374 0.0
1.36237630898 4.27878141198 0.0
1.3753242847 4.29385348652 0.0
1.38786845609 4.30926329506 0.0
1.05632730172 4.46025283906 0.0
0.549964048968 4.4630053958 0.0
0.806135520676 4.31186690218 0.0
0.603895783049 4.26079310371 0.0
1.22984770884 4.38318704125 0.0
0.3703382852 4.38423552752 0.0
0.995322815839 4.25565031136 0.0
0.728315816804 4.1765935937 0.0
0.872128173905 4.17288724072 0.0
1.14059401893 4.27298468684 0.0
0.461553191009 4.27181671009 0.0
0.784706775856 4.56821390922 0.0
0.398287125272 4.57945970538 0.0
1.20625306554 4.58334743514 0.0
0.624100842742 4.1589824436 0.0
0.5257453845 4.18811776279 0.0
0.978502430793 4.15488737058 0.0
1.07419209812 4.18825154482 0.0
0.364313698077 4.28677035763 0.0
1.23509538257 4.28681716733 0.0
0.68124123937 4.39284548972 0.0
1.31679378691 4.35012066749 0.0
0.283206213094 4.35012066749 0.0
0.791498533126 4.11467141721 0.0
0.931481076052 4.3801344917 0.0
0.966719065571 4.62778042839 0.0
0.684451667517 4.11068036752 0.0
0.618335406951 4.62686910993 0.0
0.450982331762 4.19686171732 0.0
0.915674266355 4.10995633851 0.0
1.14900051594 4.19689012964 0.0
1.30193709687 4.4481448133 0.0
0.298574667609 4.44816296922 0.0
1.05734787542 4.34990107617 0.0
0.539273225177 4.35252599628 0.0
0.709896798149 4.27721026287 0.0
0.895708916005 4.26924194389 0.0
0.813273511364 4.43835766235 0.0
0.559289631452 4.13230879113 0.0
1.04001407307 4.13281539633 0.0
0.801161810585 4.23146244955 0.0
0.665113819616 4.52056650186 0.0
0.852577362173 4.09111846388 0.0
0.390256727869 4.2242806298 0.0
1.20974450479 4.22428104599 0.0
0.921542541183 4.52778058719 0.0
1.14030889032 4.36437344809 0.0
1.15600477272 4.46808538305 0.0
0.435243219029 4.4750581257 0.0
0.462045157798 4.36654654286 0.0
0.735806812738 4.08472269746 0.0
1.30082934537 4.29793772796 0.0
0.299170654625 4.29793772796 0.0
0.533651712118 4.26265983853 0.0
0.666130919144 4.21652131559 0.0
1.0676097303 4.26179469382 0.0
1.08054433577 4.58530946155 0.0
0.506773767255 4.56568295079 0.0
0.626745312844 4.10124420826 0.0
0.933845304214 4.2106954732 0.0
0.293717639664 4.55175000185 0.0
0.312505022079 4.66426411351 0.0
1.3058164124 4.55154930624 0.0
1.29054387065 4.66302765963 0.0
0.973467966326 4.09941619478 0.0
0.487935413164 4.15087084015 0.0
0.461549079751 4.68836834982 0.0
1.11203248746 4.15093503889 0.0
1.14453515393 4.70617370303 0.0
0.840217564202 4.68891146633 0.0
0.585347033288 4.20539048534 0.0
0.619177396637 4.34227576306 0.0
0.331644410315 4.24962190462 0.0
1.26835558968 4.24962190462 0.0
1.01536156978 4.19987473052 0.0
0.809331033562 4.07065709122 0.0
0.982321540791 4.33437358971 0.0
0.725600576914 4.66999651799 0.0
0.812291456186 4.16642942492 0.0
0.335887692543 4.33918235669 0.0
1.26344844681 4.34017131907 0.0
1.23449730504 4.49457441524 0.0
1.34334172095 4.40539551957 0.0
0.256658279045 4.40539551957 0.0
0.741646926828 4.34287908527 0.0
0.674799084703 4.16673768522 0.0
1.18647435526 4.30955189749 0.0
0.360563250283 4.49596479569 0.0
0.873716483853 4.33845499203 0.0
0.418704489949 4.31146264283 0.0
0.492670911224 4.22931614809 0.0
0.403480880356 4.19046776931 0.0
1.19651541215 4.1904686246 0.0
0.728649253738 4.46214546491 0.0
1.00883674467 4.40174664879 0.0
1.11035034557 4.23161841276 0.0
0.261968539765 4.3130079512 0.0
1.33803146023 4.3130079512 0.0
0.74649980488 4.1318354354 0.0
0.927597725248 4.1577597079 0.0
0.892956618256 4.07619338913 0.0
0.659794281787 4.07951387326 0.0
0.587663534405 4.09486537006 0.0
0.942353209926 4.07935300973 0.0
1.01493747319 4.09476013719 0.0
0.613130017774 4.41369803882 0.0
0.449373501074 4.15377191978 0.0
0.514840228377 4.12225850006 0.0
0.497057592 4.41333092106 0.0
1.15061382426 4.15379293084 0.0
1.08514419473 4.12228328152 0.0
0.745617635771 4.23098957592 0.0
0.87523452213 4.59853036549 0.0
0.855262884783 4.2258970831 0.0
1.01126200032 4.53280064162 0.0
1.09391916408 4.40632408872 0.0
1.04436265455 4.71482000827 0.0
0.314320181089 4.38773968607 0.0
1.28649331902 4.38743720145 0.0
0.771211579291 4.06316862024 0.0
0.432259099658 4.24006002157 0.0
0.698583889427 4.07144353526 0.0
1.16802128371 4.238862881 0.0
1.09587629216 4.3086676659 0.0
1.35920470355 4.35666960471 0.0
0.240795296449 4.35666960471 0.0
0.504003580654 4.30815758118 0.0
0.579942709371 4.5342075073 0.0
0.875915224914 4.12815792528 0.0
0.426503136644 4.40717733008 0.0
0.57541416445 4.30365301522 0.0
0.683877978289 4.33161848113 0.0
0.888061695889 4.44633509246 0.0
0.26012287522 4.49859249103 0.0
1.33987712478 4.49859249103 0.0
0.801393572636 4.37060096582 0.0
0.558460082533 4.72496728209 0.0
1.1741923373 4.41132830101 0.0
0.83220012886 4.12779415912 0.0
1.02815069622 4.30053276509 0.0
0.948308583502 4.2880204454 0.0
0.846588933095 4.50834596945 0.0
0.343666800815 4.43485820652 0.0
1.25632767671 4.43480360053 0.0
0.97849585731 4.47031535602 0.0
1.10170977548 4.51507265998 0.0
0.662193131828 4.26809398492 0.0
0.400503668388 4.26881657105 0.0
1.20117145985 4.26130427377 0.0
0.350957892513 4.21796558019 0.0
1.24904210749 4.21796558019 0.0
0.771964652188 4.18905379403 0.0
0.932165148285 4.72736281402 0.0
0.373672364094 4.73321357765 0.0
0.760245937722 4.28409350779 0.0
0.848718469252 4.05767763075 0.0
1.23385612561 4.7358294747 0.0
0.846421485813 4.28065918421 0.0
0.651597058631 4.13043284014 0.0
0.650489852552 4.72138045504 0.0
0.58457834847 4.16375088261 0.0
0.48701309933 4.18859927013 0.0
0.708495738406 4.58856947756 0.0
1.11203398596 4.18878062515 0.0
0.54865558244 4.10250047869 0.0
1.05126102377 4.10234629471 0.0
0.300013757486 4.26259646442 0.0
1.29998624251 4.26259646442 0.0
0.9465032388 4.12718070354 0.0
0.708587583337 4.14146095907 0.0
0.973348904468 4.19537871864 0.0
0.628721855632 4.19538356945 0.0
0.380175010018 4.34021880077 0.0
0.662092932411 4.45899041267 0.0
1.05133526787 4.22221992007 0.0
0.528087045766 4.64327882187 0.0
1.22233124543 4.33521693908 0.0
1.19001193434 4.36273586668 0.0
0.853024099244 4.39544003492 0.0
0.542800296246 4.22324366905 0.0
0.247706318737 4.45239119247 0.0
1.35229368126 4.45239119247 0.0
0.599153768578 4.12953797005 0.0
1.01616570494 4.16227683178 0.0
0.744705786938 4.40569544575 0.0
1.31929001115 4.73702550052 0.0
0.777615355331 4.15113602511 0.0
1.33132411895 4.60631378639 0.0
0.265621610877 4.60975488866 0.0
0.532023338888 4.15374454388 0.0
1.0697792195 4.15241429251 0.0
0.286371037106 4.73010312914 0.0
0.497725885905 4.50153668256 0.0
0.46053455822 4.31587947599 0.0
0.433799237968 4.54629400991 0.0
0.388624781906 4.65094200004 0.0
0.554823673752 4.40451940232 0.0
1.1421595646 4.31818301431 0.0
1.14760043966 4.61655103139 0.0
1.21258698805 4.65320200685 0.0
1.16279096046 4.53292621409 0.0
0.995762647814 4.12508772517 0.0
0.456229040627 4.61456685246 0.0
0.707289391156 4.21520271873 0.0
0.763036833302 4.74285445535 0.0
0.78386198569 4.49787013126 0.0
[...]
POINT_DATA 999
VECTORS Displacement float
0.157218854172 -0.196171486868 0
0.16267086828 -0.196224531806 0
0.16 -0.2 0
0.16 -0.2 0
0.162910280826 -0.196208085782 0
0.163140786312 -0.196186566449 0
0.163347933163 -0.196161699308 0
0.163524891198 -0.196153549357 0
0.163635034323 -0.1961717957 0
0.163707443877 -0.196226928715 0
0.163682501523 -0.196327571289 0
0.163552982515 -0.196483293024 0
0.163303227418 -0.196735570973 0
0.162881617107 -0.197109063708 0
0.162266390533 -0.197669973415 0
0.161374236905 -0.198519426233 0
0.16 -0.2 0
0.16 -0.2 0
0.16 -0.2 0
0.16 -0.2 0
0.16 -0.2 0
0.16 -0.2 0
0.16 -0.2 0
0.16 -0.2 0
0.16 -0.2 0
0.16 -0.2 0
0.16 -0.2 0
0.16 -0.2 0
0.16 -0.2 0
0.16 -0.2 0
0.16 -0.2 0
0.16 -0.2 0
0.16 -0.2 0
0.158622034805 -0.198512751335 0
0.157719464607 -0.197653169479 0
0.157065736516 -0.197082257296 0
0.15664852852 -0.196698126658 0
0.156392413494 -0.196439779315 0
0.156252235696 -0.196280420832 0
0.156218589563 -0.196178707371 0
0.156283618222 -0.196122315883 0
0.156387033855 -0.196102937401 0
0.156557707005 -0.19611009379 0
0.156759005047 -0.196134224261 0
0.156984177676 -0.196155269986 0
0.157412934092 -0.196044176358 0
0.157626654923 -0.195901480546 0
0.157857668544 -0.195734928246 0
0.158110654307 -0.195545007832 0
0.158384456158 -0.195323566474 0
0.15867100217 -0.195065274306 0
0.158974767868 -0.194772967907 0
0.159308302025 -0.194442921338 0
0.159668420007 -0.194045411005 0
0.160035975502 -0.193612164223 0
0.160430714755 -0.193108974857 0
0.160874268713 -0.19252420206 0
0.161342134662 -0.191811263182 0
0.161871534116 -0.19091298442 0
0.162382554036 -0.189813744218 0
0.162802737183 -0.188712836636 0
0.163115662445 -0.187651102844 0
0.163348227982 -0.186592542216 0
0.163505604109 -0.185594209623 0
0.163596254987 -0.18463168662 0
0.163633492988 -0.183719370225 0
0.163606573283 -0.182835039302 0
0.163537621857 -0.181990533025 0
0.163391820245 -0.181256468555 0
0.163216992924 -0.180575548885 0
0.16299660814 -0.179946097132 0
0.162749544001 -0.17938324722 0
0.162467170108 -0.178882323232 0
0.162167930436 -0.17844511361 0
0.161835851624 -0.178066181151 0
0.16148829283 -0.1777561205 0
0.161116122423 -0.177506177547 0
0.160737239962 -0.177318595683 0
0.160343768636 -0.177190816385 0
0.159903873848 -0.177061830958 0
0.159478019643 -0.177156991929 0
0.159078517613 -0.177301435063 0
0.158698598697 -0.177491902551 0
0.158334224238 -0.177746324413 0
0.157986339598 -0.178058698851 0
0.157654329418 -0.178435438228 0
0.157345231273 -0.178882590455 0
0.157073610299 -0.179380871762 0
0.156829827111 -0.17994797641 0
0.156612780035 -0.180581598318 0
0.156441282981 -0.181265911919 0
0.156307689942 -0.182014809465 0
0.156217902138 -0.182799272178 0
0.156187095858 -0.183688131012 0
0.156228149202 -0.184616275268 0
0.156320633901 -0.185583267652 0
0.156481082037 -0.18658617119 0
0.156712543988 -0.187639768968 0
0.157028911726 -0.188707034694 0
0.157436138076 -0.189787010728 0
0.15795372512 -0.190906383412 0
0.158488521191 -0.191813186786 0
0.158964125125 -0.192537018245 0
0.159413949411 -0.193128256613 0
0.159813969878 -0.193636327458 0
0.160186321089 -0.194073623473 0
0.160551015806 -0.194474804763 0
0.160888827298 -0.194807988493 0
0.161196624484 -0.195103197625 0
0.161487091939 -0.19536419722 0
0.1617646364 -0.195588139732 0
0.162021249213 -0.195780515338 0
0.16225583965 -0.195949516346 0
0.162473145345 -0.196094673191 0
0.162354168114 -0.192465121502 0
0.157620725592 -0.192448079279 0
0.159985196241 -0.185909139382 0
0.158955175945 -0.186210045116 0
0.163107336546 -0.193962315899 0
0.156794736321 -0.193951003893 0
0.160855851596 -0.186039658784 0
0.160035591863 -0.181839348339 0
0.159786981246 -0.18172930379 0
0.161766068091 -0.190281210974 0
0.158130880409 -0.190194251487 0
0.159839421362 -0.19376830543 0
0.157136983425 -0.196280139892 0
0.162803719135 -0.196382646099 0
0.160497543447 -0.182859756462 0
0.159955644869 -0.186321416828 0
0.159260936816 -0.182805709008 0
0.159898545576 -0.186313221143 0
0.157731344161 -0.193210762699 0
0.162148627319 -0.193212263061 0
0.158813681934 -0.189043770999 0
0.16296096908 -0.195185873948 0
0.156935539861 -0.195150888461 0
0.159987048683 -0.179647477075 0
0.161179406923 -0.188778715177 0
0.161218240007 -0.195754157137 0
0.160934310918 -0.180405685139 0
0.158631414106 -0.195798815107 0
0.15961712794 -0.18929182977 0
0.158891466859 -0.180381033646 0
0.160233995305 -0.189286529084 0
0.163519254096 -0.195543842022 0
0.156402541827 -0.195510537973 0
0.162073518838 -0.189839251754 0
0.157780318358 -0.189969428272 0
0.159406338121 -0.185178117608 0
0.160453587249 -0.184978062592 0
0.1600920103 -0.189944516252 0
0.161390963921 -0.183856440391 0
0.158462322962 -0.183835858111 0
0.159934027531 -0.183289557827 0
0.158674997665 -0.192835431774 0
0.159330700872 -0.179146291756 0
0.158887885349 -0.191995544847 0
0.160973714764 -0.192006588615 0
0.161127361642 -0.19295288376 0
0.162662399588 -0.191897630695 0
0.162990172201 -0.194003137336 0
0.156885409601 -0.194228859579 0
0.15723750452 -0.191876600834 0
0.160682344598 -0.179068167399 0
0.162319979926 -0.194757516343 0
0.157563692218 -0.194724975554 0
0.158576212447 -0.187907363556 0
0.159670847597 -0.183800582645 0
0.161286003133 -0.1879136457 0
0.162158445048 -0.195480582141 0
0.157613199687 -0.195172653117 0
0.161655013636 -0.181225602491 0
0.160126217365 -0.183619699816 0
0.156583557769 -0.196463677711 0
0.157617270754 -0.197785243999 0
0.163363599802 -0.196487468861 0
0.162382262579 -0.197784626613 0
0.158144073427 -0.181185644589 0
0.161087448324 -0.186880817165 0
0.158335704179 -0.197763590571 0
0.158753157052 -0.186872149566 0
0.161485416846 -0.198101540283 0
0.160226855265 -0.196947592818 0
0.159668380326 -0.185058178771 0
0.158429830751 -0.188286012276 0
0.158377762022 -0.193883892831 0
0.161493106911 -0.193909643059 0
0.160085593709 -0.184918536834 0
0.159783204452 -0.178361440504 0
0.161425426125 -0.18808493219 0
0.159501607606 -0.196523979566 0
0.159890467597 -0.181234655452 0
0.157070027 -0.194203720372 0
0.162832217394 -0.194221917865 0
0.163315501362 -0.195354435875 0
0.163413149857 -0.195705911312 0
0.156496359508 -0.195667304114 0
0.159446089579 -0.187059234787 0
0.160241697995 -0.182167488843 0
0.162379629503 -0.192146213213 0
0.156592544032 -0.195400371726 0
0.160562401421 -0.187005872928 0
0.157498935929 -0.192028520321 0
0.158956259955 -0.188362374444 0
0.159770087879 -0.191237273204 0
0.160079949358 -0.191238906044 0
0.159243366236 -0.190825078137 0
0.161910473531 -0.190341924969 0
0.160958140578 -0.18850849501 0
0.15736020651 -0.195383559609 0
0.162526812925 -0.195423513842 0
0.160255820294 -0.180343412609 0
0.159484638145 -0.181932905898 0
0.158691018953 -0.179134831649 0
0.161713705965 -0.179968164412 0
0.162230120101 -0.18205955512 0
0.158090612756 -0.180005474531 0
0.157570887172 -0.182138993492 0
0.158163519126 -0.190378336411 0
0.16104963538 -0.188655027787 0
0.162008041718 -0.185195340165 0
0.157268555304 -0.19212545111 0
0.158785131746 -0.188644500205 0
0.157826806981 -0.185182307879 0
0.159770807045 -0.1834350233 0
0.160608486156 -0.194684874859 0
0.160072569564 -0.183275929009 0
0.161874883946 -0.193731083559 0
0.162561996827 -0.191823917549 0
0.161090197424 -0.197958252885 0
0.156664286465 -0.19489067152 0
0.163241092279 -0.1949284577 0
0.160332842665 -0.178225364617 0
0.158585799705 -0.190655709926 0
0.161318298319 -0.179125566648 0
0.161255041757 -0.190651149997 0
0.161993844227 -0.189748821948 0
0.163040014711 -0.195757142973 0
0.156857519474 -0.195713655346 0
0.157892886676 -0.189742184511 0
0.158003085161 -0.193841225746 0
0.159411840636 -0.180412503668 0
0.156895753081 -0.193254733307 0
0.158367264222 -0.187981718235 0
0.158997075383 -0.187144042366 0
0.160844934045 -0.190427971475 0
0.156319446346 -0.196123301611 0
0.163609757213 -0.196158404 0
0.159961111801 -0.187804184654 0
0.15898797411 -0.198142552025 0
0.163025030358 -0.193346458606 0
0.159701945189 -0.180096603866 0
0.161508384814 -0.187968294295 0
0.160882602119 -0.186197314718 0
0.160429140073 -0.192103043267 0
0.156535088362 -0.194887365782 0
0.163382299443 -0.194908313087 0
0.161699368879 -0.191824298548 0
0.16257909208 -0.194219268196 0
0.159194609933 -0.185439951766 0
0.158033031996 -0.192037666761 0
0.16171378811 -0.192028899521 0
0.15906419574 -0.193272993139 0
0.16079732925 -0.193293536155 0
0.159937500284 -0.18197989585 0
0.16057029961 -0.197970604933 0
0.158657254039 -0.198707648894 0
0.159691447602 -0.185082551859 0
0.159152801411 -0.178192232766 0
0.161300685589 -0.198760107834 0
0.160214405319 -0.184997434889 0
0.160876793352 -0.18150444252 0
0.159308341552 -0.197871637284 0
0.160497710703 -0.183939982302 0
0.159898064029 -0.187709001053 0
0.159198703881 -0.194471511841 0
0.159953013681 -0.18766510813 0
0.162410005964 -0.183498294425 0
0.157411953312 -0.183476617446 0
0.158140061844 -0.194646743749 0
0.161734704117 -0.194679655123 0
0.158916233978 -0.181381952922 0
0.16039923621 -0.180978356046 0
0.15996855185 -0.183849820609 0
0.159886867105 -0.183812472253 0
0.157130338432 -0.193295440993 0
0.158593959682 -0.191145861472 0
0.160581754144 -0.186465002618 0
0.158210252501 -0.196614406121 0
0.162723046685 -0.193315591905 0
0.162859211662 -0.192933856077 0
0.160464652635 -0.188702686781 0
0.159242314018 -0.186668038503 0
0.156307767855 -0.195925246472 0
0.163612241968 -0.195963754015 0
0.161226791571 -0.18264437047 0
0.159311184008 -0.183909873362 0
0.159409935634 -0.189031124877 0
0.161434839018 -0.198746593784 0
0.160012442997 -0.180778110122 0
0.163079148361 -0.197062647938 0
0.15689610844 -0.197073190538 0
0.160880254169 -0.185276761183 0
0.158914724122 -0.18529776484 0
0.158469521687 -0.198657092423 0
0.15731141394 -0.193942769004 0
0.157606403378 -0.191003846629 0
0.157103182507 -0.195460782177 0
0.157710916248 -0.197436880622 0
0.157699472092 -0.190968042185 0
0.162315139961 -0.191118961319 0
0.162311370059 -0.19655404407 0
0.162239524979 -0.19748323326 0
0.162879931719 -0.195205467703 0
0.158538353517 -0.182389410571 0
0.157654184806 -0.196487893515 0
0.159765114629 -0.183243388456 0
0.159844671406 -0.19822535459 0
0.159805185445 -0.191751866932 0
0.160967610565 -0.187293119116 0
0.160734194169 -0.190217433471 0
0.160056033129 -0.183090144391 0
0.159103052846 -0.190208619301 0
0.163485254753 -0.195848217427 0
0.160923845979 -0.17842945609 0
0.157769828787 -0.19406221766 0
0.162110540578 -0.194088493034 0
0.159673961976 -0.192476986243 0
0.160179359796 -0.192489903636 0
0.158109861437 -0.192120361994 0
0.156998523621 -0.192981120915 0
0.160277267663 -0.179121777228 0
0.159154283365 -0.193022176961 0
0.15830260828 -0.192979161916 0
0.161569257691 -0.192994356551 0
0.156454814912 -0.195776971495 0
0.163239826715 -0.194467908439 0
0.160553829702 -0.185001286023 0
0.157775444393 -0.195192878676 0
0.162104724383 -0.195231289405 0
0.161607770414 -0.197056782605 0
0.156694510327 -0.194441786531 0
0.157131336927 -0.19575473864 0
0.162760094857 -0.195799875502 0
0.16225267724 -0.180763559848 0
0.159938030238 -0.182303981302 0
0.162892078506 -0.196941978975 0
0.157054288489 -0.196922449434 0
0.158382734616 -0.188982516761 0
0.160711401317 -0.179938708747 0
0.159948376323 -0.184300243559 0
0.159694749955 -0.179210516357 0
0.162385443355 -0.190842946829 0
0.161508432562 -0.18903719886 0
0.158765086635 -0.18687999189 0
0.158191301009 -0.179102640786 0
0.157619874841 -0.180803446721 0
0.162729540035 -0.193302651153 0
0.15711521686 -0.194750871361 0
0.162777845759 -0.194780613875 0
0.161248034074 -0.194258862446 0
0.157499647148 -0.190865693498 0
0.158902910335 -0.186616488525 0
0.159549909768 -0.184970587456 0
0.158575397209 -0.194227401893 0
0.159848529359 -0.195872387476 0
0.161910065015 -0.186951139011 0
0.157924729776 -0.186942042136 0
0.158810321611 -0.189507785039 0
0.160965854322 -0.189465434214 0
0.156424628269 -0.196448466166 0
0.163517642383 -0.196480718401 0
0.159294385405 -0.185173538729 0
0.161004965411 -0.186768329679 0
0.160137801231 -0.185243488157 0
0.161692808601 -0.195439730565 0
0.158772208946 -0.178446811463 0
0.161332801622 -0.190492195686 0
0.163276765457 -0.195895039517 0
0.156627066712 -0.195850218593 0
0.159356999201 -0.190530965456 0
0.159096621129 -0.179683913349 0
0.160497238569 -0.19052972117 0
0.15949895515 -0.184322244658 0
0.160693050924 -0.196367175557 0
0.160851380606 -0.198857117744 0
0.162242053743 -0.190943632772 0
0.158026042111 -0.189501077858 0
0.163267009172 -0.19531654309 0
0.156638472695 -0.195283188813 0
0.163178414161 -0.196152258384 0
0.15675234265 -0.196096741362 0
0.15933805497 -0.181047116475 0
0.162011136526 -0.191350971937 0
0.16183371882 -0.179161039029 0
0.160007906582 -0.177770898453 0
0.15976866133 -0.181061506009 0
0.157012562523 -0.193215134549 0
0.157875479941 -0.191497179815 0
0.158897807237 -0.193939086166 0
0.160966252687 -0.193965774174 0
0.160241248886 -0.187187837183 0
0.160295878641 -0.184053253886 0
0.159483277951 -0.177950987821 0
0.162396482328 -0.197838694267 0
0.157336347956 -0.193851569394 0
0.162534594269 -0.193875199074 0
0.161722678876 -0.189039235226 0
0.157385934146 -0.197626607582 0
0.159186797275 -0.198926833753 0
0.162813650958 -0.192496441706 0
0.158091486267 -0.195580846142 0
0.160216347798 -0.182813892246 0
0.161527429276 -0.189064934733 0
0.161684106096 -0.188656159971 0
0.160356111937 -0.184903163557 0
0.161201576436 -0.187024076411 0
0.158476769838 -0.189126674236 0
0.156834160042 -0.195172164443 0
0.161341686055 -0.180767446493 0
0.161090407475 -0.182107485845 0
0.156876390916 -0.194736066223 0
0.163021525452 -0.194779650598 0
0.158575521623 -0.194424045322 0
0.161292940921 -0.194455277134 0
0.159776562313 -0.182201792709 0
0.162250369627 -0.192637220091 0
0.162275195775 -0.19367912092 0
0.159648592407 -0.182838527163 0
0.158168670805 -0.188716788216 0
0.159466677188 -0.185795845801 0
0.157406005303 -0.192865918828 0
0.157080523504 -0.195470301717 0
0.162812069583 -0.1955106627 0
0.160241505767 -0.198417972513 0
0.160524355839 -0.18633712167 0
0.160488586947 -0.187948307048 0
0.157103099098 -0.192467856019 0
0.160463098771 -0.185750129741 0
0.158454163486 -0.180743424899 0
0.157291566247 -0.192910299842 0
0.160543019467 -0.187179688763 0
0.16088147715 -0.199064020882 0
0.162797339373 -0.18261675231 0
0.159363569109 -0.187947838661 0
0.159148531838 -0.196181973395 0
0.160088627102 -0.181055304779 0
0.159409406978 -0.186451694893 0
0.159807823468 -0.184064216455 0
0.162754207842 -0.184227434271 0
0.156986137557 -0.182612030986 0
0.159362137757 -0.187174434272 0
0.157074602655 -0.184205649539 0
0.159903670716 -0.180404201837 0
0.160071396881 -0.184000966802 0
0.160076729195 -0.178679916035 0
0.163529529221 -0.195951007338 0
0.156384028391 -0.19590848084 0
0.162699353801 -0.18115603999 0
0.162352080257 -0.180033694116 0
0.159712639463 -0.198786178209 0
0.157495246515 -0.180030711858 0
0.157139299829 -0.181196309311 0
0.162575329026 -0.186069462963 0
0.162075895754 -0.187912933987 0
0.160003269111 -0.182401206936 0
0.157257227884 -0.186059761605 0
0.157755749132 -0.187903833308 0
0.163157490367 -0.194835125279 0
0.161429921627 -0.196598810611 0
0.159769734592 -0.186895876007 0
0.160740925973 -0.177921402862 0
0.158572802741 -0.179680969403 0
0.161355696132 -0.178373397966 0
0.160600096208 -0.181242962155 0
0.162925005274 -0.193845044952 0
0.163262976308 -0.195617838467 0
0.156640984151 -0.195578665869 0
0.157642841167 -0.193604227894 0
0.163417707674 -0.19530475232 0
0.156494642748 -0.195274736337 0
0.160320666043 -0.193593173062 0
0.159263867694 -0.18559822798 0
0.16051766979 -0.198764731568 0
0.15946160278 -0.17869270944 0
0.160747548482 -0.188387123953 0
0.160445835532 -0.191725524206 0
0.159397182228 -0.191729280509 0
0.156809151985 -0.194363911774 0
0.160737084744 -0.186128059204 0
0.158256885398 -0.182955173045 0
0.160148560888 -0.18378794904 0
0.162518164101 -0.195628535999 0
0.159889188613 -0.18250158516 0
0.159131165416 -0.186039372766 0
0.161326020947 -0.179791019424 0
0.159928327184 -0.182141046779 0
0.15671757592 -0.194034457992 0
0.159034778504 -0.189758176232 0
0.159509042684 -0.179994097359 0
0.159641301778 -0.190218075036 0
0.159083022923 -0.187886681717 0
0.161817101043 -0.184289851083 0
0.16004640753 -0.190110611501 0
0.159799153059 -0.19010483424 0
0.158018933389 -0.184276527728 0
0.160224962869 -0.186077953625 0
0.160412128281 -0.179601267603 0
0.161897602779 -0.18308388628 0
0.163468894363 -0.195397683544 0
0.156459162597 -0.195346763013 0
0.159191385257 -0.199137804157 0
0.159644160827 -0.183784802498 0
0.163190349712 -0.194027683126 0
0.160169773454 -0.179759677377 0
0.158319302984 -0.178590085227 0
0.157182708648 -0.195119260529 0
0.162707612832 -0.195155009104 0
0.157560146768 -0.195619159328 0
0.162323409943 -0.195662874996 0
0.159075739055 -0.179104716422 0
0.157219127627 -0.192278283261 0
0.161641275898 -0.181974690229 0
0.163097661235 -0.195786644287 0
0.160598926335 -0.185901106494 0
0.15865542814 -0.181694838114 0
0.163092035982 -0.194390094183 0
0.156988372293 -0.195909630492 0
0.16290610065 -0.195957310487 0
0.160715646204 -0.193182259126 0
0.161991814826 -0.191556001672 0
0.161260587377 -0.185812510655 0
0.157414429625 -0.194336436431 0
0.162471827567 -0.194363464582 0
0.158474106768 -0.191574292534 0
0.159879962786 -0.182868675017 0
0.16135003073 -0.191606206702 0
0.160601604832 -0.185193271729 0
0.160587819186 -0.178537723896 0
0.157506632362 -0.191071012584 0
0.1585868081 -0.185831080845 0
0.159264783198 -0.191357912909 0
0.160591716223 -0.191361923581 0
0.16158500239 -0.193093262715 0
0.158527778905 -0.189347140479 0
0.159120308856 -0.199242599183 0
0.158165218882 -0.19502994665 0
0.161709197523 -0.195067086434 0
0.160887846188 -0.179375019448 0
0.161378495619 -0.189508039399 0
0.158450569355 -0.189493949783 0
0.159621973179 -0.18449055547 0
0.159967245256 -0.182929640248 0
0.159357502048 -0.198587804672 0
0.159354335617 -0.188686239804 0
0.158901584036 -0.191720898976 0
0.1626164117 -0.192067183846 0
0.160458936313 -0.190830218526 0
0.160504498698 -0.188737457755 0
0.160248430424 -0.184367210765 0
0.163526267953 -0.1956982534 0
0.156389923966 -0.195663594628 0
0.158822199699 -0.187854421805 0
0.158023199523 -0.193556699188 0
0.161849945022 -0.193567818961 0
0.161943514698 -0.190020980367 0
0.158595612917 -0.193371878417 0
0.161253906868 -0.193377459923 0
0.156267716326 -0.196079953608 0
0.163657909167 -0.196119464943 0
0.158695458081 -0.186968188626 0
0.160949542474 -0.197213303061 0
0.162949983014 -0.193303565799 0
0.160830825476 -0.191838740944 0
0.161360146377 -0.18942793978 0
0.159958919852 -0.182529803646 0
0.159642558434 -0.185650936751 0
0.157764619943 -0.179347073368 0
0.162013285471 -0.192692967418 0
0.163268977095 -0.194521300805 0
0.15663966507 -0.194503235649 0
0.157684819979 -0.192233420536 0
0.157939058122 -0.190008675392 0
0.160283638309 -0.184299929474 0
0.158589376674 -0.190165268853 0
0.159591193082 -0.181349426071 0
0.161546512198 -0.189917298755 0
0.160963014073 -0.18948706333 0
0.159624917446 -0.194725110112 0
0.161072392918 -0.187986054878 0
0.161856676623 -0.180536059874 0
0.161796441805 -0.188947020698 0
0.162864312079 -0.192703479171 0
0.16029602562 -0.195699069985 0
0.158245801902 -0.188532103939 0
0.159608565629 -0.187966029532 0
0.158924401278 -0.197356816525 0
0.158270439379 -0.19312318179 0
0.158534118246 -0.18764115544 0
0.1596354314 -0.183938864827 0
0.158666534163 -0.188106560801 0
0.15784828211 -0.191484649491 0
0.157972714958 -0.180529386325 0
0.157793793432 -0.181517919139 0
0.156793928172 -0.195954192765 0
0.163105015316 -0.196002340403 0
0.163607431527 -0.195918469767 0
0.156317512202 -0.195886973188 0
0.160314683318 -0.177698836309 0
0.160224580042 -0.181019684643 0
0.161296019937 -0.187650374232 0
0.159808874077 -0.182777966373 0
0.162034632631 -0.194611806416 0
0.158558676682 -0.197713330734 0
0.163041833034 -0.193479462187 0
0.160181507068 -0.183695308059 0
0.160027563285 -0.185799330176 0
0.161126211795 -0.187230592798 0
0.158436781365 -0.190160637568 0