# vtk DataFile Version 2.0
Generated with Solid Solver
ASCII
DATASET UNSTRUCTURED_GRID
POINTS 999 float 
0.2 4.325 0.0
1.4 4.325 0.0
1.4 4.825 0.0
0.2 4.825 0.0
1.4 4.34523264049 0.0
1.4 4.36751203886 0.0
1.4 4.39204525371 0.0
1.4 4.4190602782 0.0
1.4 4.44880817466 0.0
1.4 4.48156541084 0.0
1.4 4.51763640748 0.0
1.4 4.5573564007 0.0
1.4 4.60109451608 0.0
1.4 4.64925723872 0.0
1.4 4.70229217343 0.0
1.4 4.76069218095 0.0
1.33333333333 4.825 0.0
1.26666666667 4.825 0.0
1.2 4.825 0.0
1.13333333333 4.825 0.0
1.06666666667 4.825 0.0
1.0 4.825 0.0
0.933333333334 4.825 0.0
0.866666666668 4.825 0.0
0.800000000001 4.825 0.0
0.733333333334 4.825 0.0
0.666666666668 4.825 0.0
0.600000000001 4.825 0.0
0.533333333334 4.825 0.0
0.466666666667 4.825 0.0
0.4 4.825 0.0
0.333333333334 4.825 0.0
0.266666666667 4.825 0.0
0.2 4.76069218095 0.0
0.2 4.70229217343 0.0
0.2 4.64925723872 0.0
0.2 4.60109451608 0.0
0.2 4.5573564007 0.0
0.2 4.51763640748 0.0
0.2 4.48156541084 0.0
0.2 4.44880817466 0.0
0.2 4.4190602782 0.0
0.2 4.39204525371 0.0
0.2 4.36751203886 0.0
0.2 4.34523264049 0.0
0.212131543907 4.30926329506 0.0
0.224675715302 4.29385348652 0.0
0.23762369102 4.27878141198 0.0
0.250966423879 4.26405760374 0.0
0.264694484585 4.24969246611 0.0
0.278798324214 4.23569599189 0.0
0.293267939266 4.22207810803 0.0
0.308093289028 4.20884826442 0.0
0.323263842145 4.19601585877 0.0
0.338769084145 4.18358978512 0.0
0.354597997314 4.17157887342 0.0
0.37073960121 4.15999145532 0.0
0.387182441982 4.14883575334 0.0
0.403915091795 4.13811952025 0.0
0.420925712897 4.12785033813 0.0
0.438202430937 4.11803537461 0.0
0.455733079095 4.10868154223 0.0
0.473505374364 4.09979539439 0.0
0.491506842655 4.09138316882 0.0
0.509724826085 4.0834507802 0.0
0.528146580414 4.07600377808 0.0
0.546759103951 4.06904741762 0.0
0.56554943677 4.06258654322 0.0
0.584504260001 4.05662573401 0.0
0.60361041518 4.0511691282 0.0
0.622854334779 4.04622060039 0.0
0.642222678753 4.04178358113 0.0
0.661701681839 4.03786122392 0.0
0.681277836375 4.03445624851 0.0
0.700937245817 4.03157107217 0.0
0.720666255912 4.02920769845 0.0
0.740450894784 4.02736780161 0.0
0.76027736978 4.02605266363 0.0
0.780131702711 4.02526321235 0.0
0.799999999998 4.025 0.0
0.819868297285 4.02526321235 0.0
0.839722630216 4.02605266363 0.0
0.859549105212 4.02736780161 0.0
0.879333744085 4.02920769845 0.0
0.89906275418 4.03157107217 0.0
0.918722163621 4.03445624851 0.0
0.938298318157 4.03786122392 0.0
0.957777321244 4.04178358113 0.0
0.977145665218 4.04622060039 0.0
0.996389584817 4.0511691282 0.0
1.01549574 4.05662573401 0.0
1.03445056323 4.06258654322 0.0
1.05324089605 4.06904741762 0.0
1.07185341958 4.07600377808 0.0
1.09027517391 4.0834507802 0.0
1.10849315734 4.09138316882 0.0
1.12649462563 4.09979539439 0.0
1.1442669209 4.10868154222 0.0
1.16179756906 4.1180353746 0.0
1.1790742871 4.12785033813 0.0
1.1960849082 4.13811952024 0.0
1.21281755802 4.14883575334 0.0
1.22926039879 4.15999145532 0.0
1.24540200269 4.17157887342 0.0
1.26123091585 4.18358978512 0.0
1.27673615785 4.19601585877 0.0
1.29190671097 4.20884826442 0.0
1.30673206073 4.22207810803 0.0
1.32120167579 4.23569599189 0.0
1.33530551541 4.24969246611 0.0
1.34903357612 4.26405760374 0.0
1.36237630898 4.27878141198 0.0
1.3753242847 4.29385348652 0.0
1.38786845609 4.30926329506 0.0
1.05632730172 4.46025283906 0.0
0.549964048968 4.4630053958 0.0
0.806135520676 4.31186690218 0.0
0.603895783049 4.26079310371 0.0
1.22984770884 4.38318704125 0.0
0.3703382852 4.38423552752 0.0
0.995322815839 4.25565031136 0.0
0.728315816804 4.1765935937 0.0
0.872128173905 4.17288724072 0.0
1.14059401893 4.27298468684 0.0
0.461553191009 4.27181671009 0.0
0.784706775856 4.56821390922 0.0
0.398287125272 4.57945970538 0.0
1.20625306554 4.58334743514 0.0
0.624100842742 4.1589824436 0.0
0.5257453845 4.18811776279 0.0
0.978502430793 4.15488737058 0.0
1.07419209812 4.18825154482 0.0
0.364313698077 4.28677035763 0.0
1.23509538257 4.28681716733 0.0
0.68124123937 4.39284548972 0.0
1.31679378691 4.35012066749 0.0
0.283206213094 4.35012066749 0.0
0.791498533126 4.11467141721 0.0
0.931481076052 4.3801344917 0.0
0.966719065571 4.62778042839 0.0
0.684451667517 4.11068036752 0.0
0.618335406951 4.62686910993 0.0
0.450982331762 4.19686171732 0.0
0.915674266355 4.10995633851 0.0
1.14900051594 4.19689012964 0.0
1.30193709687 4.4481448133 0.0
0.298574667609 4.44816296922 0.0
1.05734787542 4.34990107617 0.0
0.539273225177 4.35252599628 0.0
0.709896798149 4.27721026287 0.0
0.895708916005 4.26924194389 0.0
0.813273511364 4.43835766235 0.0
0.559289631452 4.13230879113 0.0
1.04001407307 4.13281539633 0.0
0.801161810585 4.23146244955 0.0
0.665113819616 4.52056650186 0.0
0.852577362173 4.09111846388 0.0
0.390256727869 4.2242806298 0.0
1.20974450479 4.22428104599 0.0
0.921542541183 4.52778058719 0.0
1.14030889032 4.36437344809 0.0
1.15600477272 4.46808538305 0.0
0.435243219029 4.4750581257 0.0
0.462045157798 4.36654654286 0.0
0.735806812738 4.08472269746 0.0
1.30082934537 4.29793772796 0.0
0.299170654625 4.29793772796 0.0
0.533651712118 4.26265983853 0.0
0.666130919144 4.21652131559 0.0
1.0676097303 4.26179469382 0.0
1.08054433577 4.58530946155 0.0
0.506773767255 4.56568295079 0.0
0.626745312844 4.10124420826 0.0
0.933845304214 4.2106954732 0.0
0.293717639664 4.55175000185 0.0
0.312505022079 4.66426411351 0.0
1.3058164124 4.55154930624 0.0
1.29054387065 4.66302765963 0.0
0.973467966326 4.09941619478 0.0
0.487935413164 4.15087084015 0.0
0.461549079751 4.68836834982 0.0
1.11203248746 4.15093503889 0.0
1.14453515393 4.70617370303 0.0
0.840217564202 4.68891146633 0.0
0.585347033288 4.20539048534 0.0
0.619177396637 4.34227576306 0.0
0.331644410315 4.24962190462 0.0
1.26835558968 4.24962190462 0.0
1.01536156978 4.19987473052 0.0
0.809331033562 4.07065709122 0.0
0.982321540791 4.33437358971 0.0
0.725600576914 4.66999651799 0.0
0.812291456186 4.16642942492 0.0
0.335887692543 4.33918235669 0.0
1.26344844681 4.34017131907 0.0
1.23449730504 4.49457441524 0.0
1.34334172095 4.40539551957 0.0
0.256658279045 4.40539551957 0.0
0.741646926828 4.34287908527 0.0
0.674799084703 4.16673768522 0.0
1.18647435526 4.30955189749 0.0
0.360563250283 4.49596479569 0.0
0.873716483853 4.33845499203 0.0
0.418704489949 4.31146264283 0.0
0.492670911224 4.22931614809 0.0
0.403480880356 4.19046776931 0.0
1.19651541215 4.1904686246 0.0
0.728649253738 4.46214546491 0.0
1.00883674467 4.40174664879 0.0
1.11035034557 4.23161841276 0.0
0.261968539765 4.3130079512 0.0
1.33803146023 4.3130079512 0.0
0.74649980488 4.1318354354 0.0
0.927597725248 4.1577597079 0.0
0.892956618256 4.07619338913 0.0
0.659794281787 4.07951387326 0.0
0.587663534405 4.09486537006 0.0
0.942353209926 4.07935300973 0.0
1.01493747319 4.09476013719 0.0
0.613130017774 4.41369803882 0.0
0.449373501074 4.15377191978 0.0
0.514840228377 4.12225850006 0.0
0.497057592 4.41333092106 0.0
1.15061382426 4.15379293084 0.0
1.08514419473 4.12228328152 0.0
0.745617635771 4.23098957592 0.0
0.87523452213 4.59853036549 0.0
0.855262884783 4.2258970831 0.0
1.01126200032 4.53280064162 0.0
1.09391916408 4.40632408872 0.0
1.04436265455 4.71482000827 0.0
0.314320181089 4.38773968607 0.0
1.28649331902 4.38743720145 0.0
0.771211579291 4.06316862024 0.0
0.432259099658 4.24006002157 0.0
0.698583889427 4.07144353526 0.0
1.16802128371 4.238862881 0.0
1.09587629216 4.3086676659 0.0
1.35920470355 4.35666960471 0.0
0.240795296449 4.35666960471 0.0
0.504003580654 4.30815758118 0.0
0.579942709371 4.5342075073 0.0
0.875915224914 4.12815792528 0.0
0.426503136644 4.40717733008 0.0
0.57541416445 4.30365301522 0.0
0.683877978289 4.33161848113 0.0
0.888061695889 4.44633509246 0.0
0.26012287522 4.49859249103 0.0
1.33987712478 4.49859249103 0.0
0.801393572636 4.37060096582 0.0
0.558460082533 4.72496728209 0.0
1.1741923373 4.41132830101 0.0
0.83220012886 4.12779415912 0.0
1.02815069622 4.30053276509 0.0
0.948308583502 4.2880204454 0.0
0.846588933095 4.50834596945 0.0
0.343666800815 4.43485820652 0.0
1.25632767671 4.43480360053 0.0
0.97849585731 4.47031535602 0.0
1.10170977548 4.51507265998 0.0
0.662193131828 4.26809398492 0.0
0.400503668388 4.26881657105 0.0
1.20117145985 4.26130427377 0.0
0.350957892513 4.21796558019 0.0
1.24904210749 4.21796558019 0.0
0.771964652188 4.18905379403 0.0
0.932165148285 4.72736281402 0.0
0.373672364094 4.73321357765 0.0
0.760245937722 4.28409350779 0.0
0.848718469252 4.05767763075 0.0
1.23385612561 4.7358294747 0.0
0.846421485813 4.28065918421 0.0
0.651597058631 4.13043284014 0.0
0.650489852552 4.72138045504 0.0
0.58457834847 4.16375088261 0.0
0.48701309933 4.18859927013 0.0
0.708495738406 4.58856947756 0.0
1.11203398596 4.18878062515 0.0
0.54865558244 4.10250047869 0.0
1.05126102377 4.10234629471 0.0
0.300013757486 4.26259646442 0.0
1.29998624251 4.26259646442 0.0
0.9465032388 4.12718070354 0.0
0.708587583337 4.14146095907 0.0
0.973348904468 4.19537871864 0.0
0.628721855632 4.19538356945 0.0
0.380175010018 4.34021880077 0.0
0.662092932411 4.45899041267 0.0
1.05133526787 4.22221992007 0.0
0.528087045766 4.64327882187 0.0
1.22233124543 4.33521693908 0.0
1.19001193434 4.36273586668 0.0
0.853024099244 4.39544003492 0.0
0.542800296246 4.22324366905 0.0
0.247706318737 4.45239119247 0.0
1.35229368126 4.45239119247 0.0
0.599153768578 4.12953797005 0.0
1.01616570494 4.16227683178 0.0
0.744705786938 4.40569544575 0.0
1.31929001115 4.73702550052 0.0
0.777615355331 4.15113602511 0.0
1.33132411895 4.60631378639 0.0
0.265621610877 4.60975488866 0.0
0.532023338888 4.15374454388 0.0
1.0697792195 4.15241429251 0.0
0.286371037106 4.73010312914 0.0
0.497725885905 4.50153668256 0.0
0.46053455822 4.31587947599 0.0
0.433799237968 4.54629400991 0.0
0.388624781906 4.65094200004 0.0
0.554823673752 4.40451940232 0.0
1.1421595646 4.31818301431 0.0
1.14760043966 4.61655103139 0.0
1.21258698805 4.65320200685 0.0
1.16279096046 4.53292621409 0.0
0.995762647814 4.12508772517 0.0
0.456229040627 4.61456685246 0.0
0.707289391156 4.21520271873 0.0
0.763036833302 4.74285445535 0.0
0.78386198569 4.49787013126 0.0
[...]
POINT_DATA 999
VECTORS Displacement float
0.599293423531 -0.0792727745806 0
0.600703217608 -0.0792758522453 0
0.6 -0.08 0
0.6 -0.08 0
0.600743329055 -0.0792721580184 0
0.600782433404 -0.0792665822972 0
0.600817309559 -0.0792593184082 0
0.600846063068 -0.0792538214334 0
0.600861326544 -0.0792522079898 0
0.600868168103 -0.0792566512956 0
0.600854034233 -0.0792691401881 0
0.600816739769 -0.0792920564834 0
0.600752605542 -0.0793346758283 0
0.600650494723 -0.0794032045162 0
0.600506084762 -0.0795126220869 0
0.600302427888 -0.0796870641066 0
0.6 -0.08 0
0.6 -0.08 0
0.6 -0.08 0
0.6 -0.08 0
0.6 -0.08 0
0.6 -0.08 0
0.6 -0.08 0
0.6 -0.08 0
0.6 -0.08 0
0.6 -0.08 0
0.6 -0.08 0
0.6 -0.08 0
0.6 -0.08 0
0.6 -0.08 0
0.6 -0.08 0
0.6 -0.08 0
0.6 -0.08 0
0.599699193008 -0.0796882983588 0
0.599495330079 -0.0795138296546 0
0.599344796505 -0.0794030482739 0
0.599245541216 -0.0793328418414 0
0.599181795377 -0.0792895348544 0
0.599143854667 -0.0792663025575 0
0.599129391546 -0.0792539065981 0
0.599136072298 -0.0792494302234 0
0.599151187554 -0.0792509722975 0
0.599179783656 -0.0792563835539 0
0.599214495154 -0.0792635743352 0
0.599253442634 -0.0792691023109 0
0.599326271957 -0.0792522669506 0
0.599362404064 -0.079229976341 0
0.599401672517 -0.0792041737101 0
0.599444738234 -0.0791747823219 0
0.599491221633 -0.0791405994355 0
0.599539958629 -0.0791007800796 0
0.599591288451 -0.0790560556516 0
0.599646971479 -0.0790058319626 0
0.599705822145 -0.0789468072311 0
0.599765565405 -0.0788833567026 0
0.59982851372 -0.0788116610965 0
0.599895670686 -0.0787320691624 0
0.599963959309 -0.0786424167792 0
0.600035468502 -0.0785438150231 0
0.6001093492 -0.0784348984081 0
0.600186586758 -0.0783136876376 0
0.600264872254 -0.0781788801615 0
0.60034880387 -0.0780296963875 0
0.600432735385 -0.077862595976 0
0.600523123103 -0.077673845259 0
0.600611923142 -0.0774614751532 0
0.600712854275 -0.0772173905549 0
0.600809336234 -0.07693029321 0
0.600919690359 -0.0765761634476 0
0.601027937067 -0.0760849164643 0
0.601084243873 -0.0755737480974 0
0.60108479196 -0.0751046481618 0
0.601038227002 -0.0746772872225 0
0.600962727914 -0.0743084324581 0
0.600848595164 -0.0739827055051 0
0.600713706839 -0.0737195007902 0
0.60054951205 -0.0735078852134 0
0.600377767265 -0.0733564639937 0
0.600195192792 -0.0732674851586 0
0.59998901144 -0.0732358359177 0
0.599796453384 -0.0732684868869 0
0.59961051338 -0.0733605498948 0
0.599437653162 -0.0735089297449 0
0.599280838904 -0.0737193495923 0
0.599144679839 -0.0739835453043 0
0.59902743151 -0.0743079795081 0
0.598944108082 -0.0746886685676 0
0.598908470188 -0.075109027101 0
0.598908517808 -0.0755715048236 0
0.598967196493 -0.0760941442517 0
0.599073646702 -0.0765825389842 0
0.599184052354 -0.0769356517801 0
0.599281832313 -0.0772210191077 0
0.599382569888 -0.0774643106467 0
0.599471659201 -0.0776767872679 0
0.599562027826 -0.0778654044776 0
0.599645997178 -0.078032456391 0
0.599730019323 -0.0781816141062 0
0.599808403276 -0.0783163813464 0
0.59988573302 -0.0784375687803 0
0.599959709767 -0.0785464756763 0
0.600031307536 -0.0786450833178 0
0.600099685107 -0.0787347706043 0
0.600166947381 -0.0788144242831 0
0.600230024265 -0.0788861851884 0
0.600289916358 -0.0789496933498 0
0.600348900511 -0.0790087469581 0
0.600404696631 -0.0790589742498 0
0.600456123915 -0.0791037057104 0
0.600504960942 -0.0791435364123 0
0.600551535904 -0.0791777297741 0
0.600594690301 -0.0792071389116 0
0.600634048581 -0.0792329677714 0
0.600670272739 -0.0792552941165 0
0.600662187366 -0.0784452314396 0
0.599348243602 -0.0784335864983 0
0.60002000843 -0.0765417864074 0
0.599456381165 -0.0770619663687 0
0.600795518304 -0.0788805455018 0
0.599201690871 -0.0788791222728 0
0.600532499058 -0.0770254503486 0
0.599829392417 -0.0752849462745 0
0.60015759744 -0.0752497271981 0
0.600607256982 -0.0782655077626 0
0.5993916125 -0.0782459150023 0
0.599961821032 -0.0785970039146 0
0.599319287429 -0.0792695085458 0
0.600675091093 -0.0792892771797 0
0.599758495612 -0.0762328738717 0
0.599668088096 -0.0775635947728 0
0.600212432128 -0.0762523910588 0
0.600328737833 -0.0775650816211 0
0.599372563874 -0.0787950105153 0
0.600623701667 -0.0787948175731 0
0.599598559784 -0.0775047656 0
0.600755695811 -0.0791051236187 0
0.599241241637 -0.0791024221044 0
0.60000056334 -0.0742881511279 0
0.600439190883 -0.0774607079635 0
0.600323636106 -0.0790838470499 0
0.600061203418 -0.07499509097 0
0.599648129101 -0.0790978911302 0
0.599678064075 -0.0782343667776 0
0.599927878115 -0.0749911744586 0
0.600317886236 -0.0782369862089 0
0.600847189319 -0.0791529763019 0
0.599150663863 -0.0791501250573 0
0.600685457758 -0.0779525680256 0
0.599307862836 -0.0779817390845 0
0.599679685145 -0.0764232328612 0
0.60033097919 -0.0763808421758 0
0.60004485953 -0.0776604696203 0
0.599985026945 -0.0770687132512 0
0.600015474753 -0.0770623291322 0
0.600000747049 -0.0756954268759 0
0.599630908663 -0.0784170255435 0
0.599883230279 -0.0741617842355 0
0.599576896056 -0.0786359539516 0
0.600418851193 -0.0786387181145 0
0.600329033118 -0.0784370188686 0
0.600753734523 -0.0784658784268 0
0.600768787975 -0.0788301731581 0
0.599224292808 -0.0788758063105 0
0.599243943832 -0.0784568153997 0
0.600165223824 -0.0741668539775 0
0.600645577869 -0.0790434265765 0
0.599350909482 -0.0790406257833 0
0.599408329624 -0.0776807390109 0
0.599621539603 -0.0761840378192 0
0.60058537727 -0.0776915933778 0
0.600552135492 -0.0790697123006 0
0.59940102671 -0.0790131578515 0
0.6001806004 -0.0758321915325 0
0.600362265341 -0.0761367098054 0
0.599211419866 -0.0793139053654 0
0.599455818738 -0.0795634538775 0
0.600787574149 -0.0793153421743 0
0.600549586702 -0.0795612065129 0
0.599792835355 -0.0758256964834 0
0.59992432408 -0.0779034591673 0
0.599601195771 -0.079547659553 0
0.600071129387 -0.0779061061074 0
0.600358837885 -0.0796160567122 0
0.600063170773 -0.0793277618051 0
0.599566257121 -0.0769622042225 0
0.5994299723 -0.0774480706165 0
0.599492195901 -0.0789157923717 0
0.600503918545 -0.0789186229111 0
0.600409097927 -0.0769465174582 0
0.599956868499 -0.0737477016698 0
0.600567553141 -0.0774107029924 0
0.599872190828 -0.0792355234413 0
0.600022183091 -0.0749373239528 0
0.599258157012 -0.0789437975133 0
0.600740333062 -0.0789449483482 0
0.60080605693 -0.0791074916874 0
0.600830583493 -0.0791840486928 0
0.599166685302 -0.0791814997884 0
0.599784760155 -0.0769096701691 0
0.599763429002 -0.0756562541671 0
0.600685382021 -0.0785877448791 0
0.599188538266 -0.0791184811127 0
0.600267695262 -0.0769144469785 0
0.59930678751 -0.0785621193192 0
0.599511689465 -0.0779422732262 0
0.59972938413 -0.0785503427936 0
0.600266142831 -0.0785528452435 0
0.599774377236 -0.0779030184493 0
0.600612306826 -0.0779469608401 0
0.600490840786 -0.0779734848032 0
0.599316719093 -0.0791452655743 0
0.600679844867 -0.0791481021161 0
0.599965357531 -0.0746532867773 0
0.600201896871 -0.0756023545575 0
0.599684747318 -0.074351752167 0
0.600391577148 -0.075063336499 0
0.600305225413 -0.0765509330725 0
0.599597008448 -0.0751052237545 0
0.599684179556 -0.0766038955886 0
0.599435052956 -0.0779171424296 0
0.599927602011 -0.0782318576532 0
0.600126462235 -0.0776223797667 0
0.599256398623 -0.0784403441387 0
0.60006764977 -0.0782344576543 0
0.59986807086 -0.0776250062495 0
0.599816036512 -0.075797681619 0
0.600171837587 -0.0788184258568 0
0.600180167435 -0.0757471543393 0
0.600514504152 -0.0786672041379 0
0.600731836056 -0.078374728117 0
0.600273876691 -0.0795738314105 0
0.599190069775 -0.0790509399609 0
0.600807039762 -0.0790551464131 0
0.600134176821 -0.0737078438395 0
0.599500753929 -0.0783976352084 0
0.600381156517 -0.0744026835805 0
0.600490048652 -0.0784006585592 0
0.600675454196 -0.0780463320192 0
0.600766736419 -0.0791972680287 0
0.599230153007 -0.0791944529505 0
0.599321160471 -0.0780440200652 0
0.599470979133 -0.0786966277646 0
0.600029519067 -0.0747670586778 0
0.599205540395 -0.0787191391533 0
0.599375405382 -0.0775197440701 0
0.599592665669 -0.077021836633 0
0.600284477099 -0.0778159965336 0
0.599148528057 -0.0792519585729 0
0.600848831921 -0.079254377017 0
0.600004329696 -0.0770888222611 0
0.599750316641 -0.0796115941937 0
0.600792056768 -0.0787354477592 0
0.600009687812 -0.0745030537591 0
0.600622090133 -0.0775323577349 0
0.60047931943 -0.076868606347 0
0.600137105736 -0.0782046710135 0
0.599166572019 -0.0790376556296 0
0.600831204552 -0.0790395972774 0
0.600508182878 -0.0782257254146 0
0.600672815443 -0.0788300581926 0
0.599553126254 -0.0766404262713 0
0.599416297879 -0.0786072197501 0
0.600556245105 -0.0786127611261 0
0.599610231329 -0.0788295574374 0
0.600385651442 -0.0788323436597 0
0.599921284251 -0.0752357245951 0
0.600149041897 -0.0795620126321 0
0.599689448724 -0.0797433263325 0
0.599850612586 -0.0763090167764 0
0.599730268936 -0.0737494663945 0
0.600302959826 -0.0797532605968 0
0.600168458264 -0.0762919657447 0
0.599926454319 -0.0756324668881 0
0.599824994349 -0.0795428066873 0
0.599746604152 -0.0768001208927 0
0.59969589514 -0.0779358519628 0
0.599787060405 -0.0787738204581 0
0.600301527633 -0.0779310857023 0
0.600286003324 -0.0771950719574 0
0.599708184317 -0.0771969687657 0
0.59945093661 -0.079032990766 0
0.600545304572 -0.0790358384385 0
0.60004455001 -0.075582988315 0
0.5999014443 -0.0750536205365 0
0.600378848375 -0.0764385635271 0
0.599617855527 -0.0764116098863 0
0.59925690934 -0.0787799722851 0
0.599582134376 -0.0780294193215 0
0.600479379773 -0.0774161745485 0
0.599556724232 -0.0792986332752 0
0.600732034883 -0.0787858954627 0
0.600766652885 -0.0786921204839 0
0.600186324426 -0.077351482914 0
0.599513901243 -0.0774756637932 0
0.599138268505 -0.0792200496671 0
0.600859175396 -0.0792224451435 0
0.599955756686 -0.0764576210687 0
0.600241201595 -0.0768092487492 0
0.599807260322 -0.0774385321774 0
0.600324710385 -0.0797471180436 0
0.599963397919 -0.0747635216747 0
0.600709565518 -0.0794172651213 0
0.599294202594 -0.0794221066312 0
0.599860379793 -0.0774450147977 0
0.600123466476 -0.0774665256391 0
0.599655705134 -0.0797314300333 0
0.599310131826 -0.0787766077031 0
0.599300767306 -0.0783388749147 0
0.599295517129 -0.0791033550303 0
0.59946365037 -0.079493554433 0
0.599326033784 -0.0781343174869 0
0.600700236558 -0.0783620028785 0
0.600566686649 -0.079308202968 0
0.600530914202 -0.0795017758983 0
0.60071742362 -0.0790532934912 0
0.600010285359 -0.0763583817098 0
0.599432654017 -0.0792946638991 0
0.599716970495 -0.0758414244798 0
0.599961415055 -0.0796119569639 0
0.599952020118 -0.0781141737131 0
0.600428887789 -0.0770781311693 0
0.599882276049 -0.0784406439922 0
0.600269831997 -0.0757940870259 0
0.600113060625 -0.0784432461421 0
0.600829914312 -0.0792021588708 0
0.600332524549 -0.073910513562 0
0.599385334241 -0.0789360937741 0
0.600611005856 -0.0789388448227 0
0.599712476812 -0.0787202870919 0
0.600283124037 -0.0787229681341 0
0.599466184679 -0.078304382956 0
0.599223154523 -0.0786944367983 0
0.60006173417 -0.0740970280263 0
0.599766748137 -0.0784362880841 0
0.59947627051 -0.0787729015769 0
0.600519875455 -0.0787752791929 0
0.599168103959 -0.0791925160661 0
0.600811190148 -0.0789450271446 0
0.600454901005 -0.0765930682939 0
0.599388199707 -0.0791173896436 0
0.600608185145 -0.0791202607945 0
0.600403201506 -0.0793917401879 0
0.599189884409 -0.0789390641711 0
0.599277882929 -0.0792036523237 0
0.600718813765 -0.0792065490745 0
0.600478788212 -0.0758010968786 0
0.600111934872 -0.0753743146756 0
0.600678794915 -0.079400959795 0
0.599317741757 -0.079399180169 0
0.599406047387 -0.0779813812469 0
0.600069077106 -0.0746313054562 0
0.600008719884 -0.0760360082671 0
0.599961880895 -0.0741180209862 0
0.600725578176 -0.0782270488646 0
0.600592726901 -0.077993709311 0
0.599466071653 -0.0770968925586 0
0.5994690017 -0.0745093530264 0
0.59953833947 -0.075812349179 0
0.600728806921 -0.0786631741087 0
0.599270913226 -0.0790385392133 0
0.600725999296 -0.0790410373686 0
0.600346118281 -0.0787456950891 0
0.599270821975 -0.0782319897319 0
0.599442671273 -0.0772746648199 0
0.600283417032 -0.077183067501 0
0.599620342875 -0.0787441212274 0
0.59996369224 -0.07908362568 0
0.600080534013 -0.077996085313 0
0.599914582268 -0.0779987460476 0
0.599518557904 -0.0781914126077 0
0.600460623737 -0.0781961578751 0
0.59918044503 -0.0793066917693 0
0.600817881498 -0.0793086646345 0
0.599515631271 -0.0767417687043 0
0.600556400569 -0.0773265858875 0
0.599680486716 -0.0772335411656 0
0.600443602062 -0.0790352084339 0
0.599610216957 -0.0739589787794 0
0.600433972617 -0.077879644692 0
0.600806664072 -0.0792169553533 0
0.599190407278 -0.0792141759 0
0.599648776547 -0.0784280179333 0
0.599888948519 -0.0745093031073 0
0.600346932365 -0.0784304932622 0
0.599634081807 -0.0762402911516 0
0.600186713325 -0.0792048069244 0
0.600207842636 -0.079766036741 0
0.600681330759 -0.0781432943985 0
0.599358413375 -0.0777980393722 0
0.600808361098 -0.0791217487538 0
0.599188881095 -0.0791192726792 0
0.600758668846 -0.0792527185803 0
0.599236544319 -0.0792446486762 0
0.600092868076 -0.075160125731 0
0.600628798667 -0.0784652988649 0
0.600606937506 -0.0746112340876 0
0.60003410956 -0.0735036026898 0
0.600074530967 -0.0749167863458 0
0.599228455693 -0.078675902605 0
0.599373763721 -0.0784946308125 0
0.59958109228 -0.0789283817744 0
0.600414882952 -0.0789312276735 0
0.600123984462 -0.0769248049992 0
0.600351225176 -0.0761633890644 0
0.599836368213 -0.0735970316797 0
0.600543765414 -0.0795636157975 0
0.599304405763 -0.0788911374211 0
0.600689323061 -0.0788943271896 0
0.600614696995 -0.0776736680568 0
0.599410600376 -0.0795264561994 0
0.599804185051 -0.0797802274013 0
0.600768989328 -0.0785548260703 0
0.599516487485 -0.07907553951 0
0.599708414931 -0.0760423845835 0
0.600548009645 -0.0776054825015 0
0.600644750964 -0.0777786915624 0
0.600456759638 -0.0767781750648 0
0.600566273365 -0.0772035589194 0
0.599487924938 -0.0775891070357 0
0.599233707671 -0.0790615502444 0
0.600131681868 -0.0754053222076 0
0.599935470529 -0.0761026430379 0
0.599227414355 -0.0790307231606 0
0.600769416935 -0.0790358418293 0
0.599525702232 -0.0790008300865 0
0.600470372593 -0.0790037034814 0
0.600230543405 -0.0755445465516 0
0.600650343929 -0.078690596336 0
0.600613691442 -0.0786889065245 0
0.600287383305 -0.0760467820808 0
0.599347065514 -0.0777862024889 0
0.599751820665 -0.076557723239 0
0.599304671204 -0.0787187053663 0
0.599268248157 -0.0791568372259 0
0.600728494649 -0.0791596481257 0
0.600064326222 -0.07965546427 0
0.599797501033 -0.0776898982351 0
0.599819763437 -0.0780614778898 0
0.599230220899 -0.078549571881 0
0.600274840819 -0.0765595942966 0
0.599846096197 -0.075414773784 0
0.599282649892 -0.0785732862441 0
0.600447034455 -0.0776835620801 0
0.600209287353 -0.0798116150349 0
0.600465313006 -0.0769766307065 0
0.600177517268 -0.0780648148319 0
0.599780198558 -0.0791666982672 0
0.599916839056 -0.0749163460429 0
0.600215308704 -0.0777111731277 0
0.599898850343 -0.0759705394267 0
0.600343071906 -0.0774752894493 0
0.599514397332 -0.0769907615461 0
0.599559994473 -0.0776887822296 0
0.599651699435 -0.0774781662375 0
0.600001344074 -0.0746001066929 0
0.600109749046 -0.0759542595668 0
0.600035992488 -0.0738809938969 0
0.600847928164 -0.079222034511 0
0.599149390039 -0.0792194207403 0
0.600600626047 -0.0762353743218 0
0.600675972922 -0.0753666047667 0
0.599927308487 -0.0797376415745 0
0.599324442201 -0.0753615111659 0
0.599401615331 -0.0762601908346 0
0.600225590817 -0.0778825212378 0
0.600096053526 -0.0781724502854 0
0.599750561522 -0.0756014476178 0
0.599769272468 -0.0778852319733 0
0.599899003564 -0.0781751161767 0
0.600783901782 -0.0790002310778 0
0.600367415474 -0.0792824937574 0
0.599922538894 -0.076837720697 0
0.600319334041 -0.0736279450129 0
0.599727944568 -0.0747101874902 0
0.600531089767 -0.0740005882262 0
0.599892396811 -0.0753233950049 0
0.600762390889 -0.0788724612669 0
0.600805677458 -0.0791719845287 0
0.599191435838 -0.079169337587 0
0.599379805661 -0.0786738418104 0
0.60083419183 -0.0791155244462 0
0.599163253185 -0.0791131890127 0
0.600097699348 -0.0785580171273 0
0.599497518163 -0.0769909732182 0
0.60013221346 -0.079737121851 0
0.599880532723 -0.0739237848185 0
0.600296612753 -0.0772979223149 0
0.59983809583 -0.0786274361828 0
0.60015729698 -0.078630079317 0
0.599210597816 -0.0789613926399 0
0.600400232959 -0.0767551063058 0
0.599946821083 -0.0767525957338 0
0.599662877937 -0.076567208483 0
0.600630212351 -0.0791206437791 0
0.599836520292 -0.0754730784022 0
0.599585453864 -0.0767418254028 0
0.600270707141 -0.0747967585671 0
0.600015083117 -0.075280472765 0
0.599186378169 -0.0788773789968 0
0.599691351744 -0.0776532916566 0
0.599993050852 -0.0745157751334 0
0.599895938634 -0.077734733049 0
0.599660204451 -0.0771802501389 0
0.600096097765 -0.0773287439394 0
0.599768957143 -0.0783990839661 0
0.600226607021 -0.0784016599126 0
0.599898577281 -0.0773314607604 0
0.600138991136 -0.0766084789752 0
0.600046617092 -0.0743499057046 0
0.600141572476 -0.0769063784351 0
0.600837824622 -0.0791237895756 0
0.59916010484 -0.0791172606208 0
0.599809516228 -0.0798264699565 0
0.600321039064 -0.076596990584 0
0.600810468309 -0.0788751208551 0
0.600006605839 -0.0743598025163 0
0.599430481897 -0.074171694326 0
0.599284826169 -0.0791005219023 0
0.600711816873 -0.0791032717871 0
0.599351328975 -0.0791844955392 0
0.60064514588 -0.0791874138801 0
0.599809500692 -0.0742120563 0
0.59925274732 -0.0785754417769 0
0.600112084807 -0.0762694256547 0
0.600750013013 -0.079179995964 0
0.600498283691 -0.0771565106895 0
0.600004767375 -0.0759074358513 0
0.600786512948 -0.0789644467856 0
0.599253528731 -0.079227910819 0
0.60074325461 -0.0792308386521 0
0.600211232926 -0.0784710071794 0
0.600593603908 -0.0782066314797 0
0.599953651884 -0.0776695591233 0
0.59932278253 -0.0789749083665 0
0.600673808774 -0.0789774939533 0
0.599494990972 -0.0785517720322 0
0.599913049779 -0.0755594143678 0
0.600492199352 -0.0785604627678 0
0.600424653116 -0.0765534997627 0
0.600196517467 -0.0738876470266 0
0.599279852248 -0.0782121128249 0
0.600043285436 -0.0776782050611 0
0.599639757495 -0.0785509454738 0
0.600355833145 -0.0785532833645 0
0.600451277421 -0.0785005938869 0
0.599452524861 -0.0781080086775 0
0.599801236649 -0.0798489111434 0
0.599454951689 -0.0790936074535 0
0.600541287836 -0.0790964999883 0
0.600188776451 -0.0743909520594 0
0.599978806412 -0.0783701427737 0
0.600016359017 -0.0783727484411 0
0.5997765623 -0.0761549478052 0
0.599687144697 -0.0759128658749 0
0.599840071034 -0.0797005764178 0
0.599609420816 -0.078084492988 0
0.59968161096 -0.0781398091207 0
0.600737586938 -0.0785368249947 0
0.60015740039 -0.0778940474318 0
0.600385995478 -0.0780990865445 0
0.600233370676 -0.0761261724496 0
0.600848570392 -0.0791806913174 0
0.599148899133 -0.0791783673517 0
0.599462386249 -0.0777542344255 0
0.599428625208 -0.0788594185791 0
0.600567151997 -0.0788605498042 0
0.600654646669 -0.0781597401731 0
0.599529703918 -0.0788394257948 0
0.60046324781 -0.0788400550691 0
0.599135495205 -0.079243612195 0
0.600862076345 -0.0792460647162 0
0.599429031193 -0.0772079591477 0
0.600246400841 -0.0794033521188 0
0.600776898889 -0.0787007235671 0
0.600258175972 -0.0781565938332 0
0.600545159629 -0.0781268614433 0
0.600191208004 -0.075521404676 0
0.599573342323 -0.0772223353349 0
0.599309136531 -0.0748182981851 0
0.600571541912 -0.0784505059107 0
0.600816949673 -0.0789768405385 0
0.599180261331 -0.0789750323087 0
0.599349711574 -0.0786192515707 0
0.599341937419 -0.0781558054484 0
0.600422308334 -0.076452053762 0
0.599558160798 -0.0778010794906 0
0.600139827735 -0.0751808187947 0
0.600518965117 -0.0777851089738 0
0.600344108704 -0.0775993205569 0
0.599902928649 -0.0788225399621 0
0.600535033207 -0.077789672209 0
0.600354356735 -0.0754852684536 0
0.600648772927 -0.0777208257063 0
0.600774111355 -0.0786288923402 0
0.600083976262 -0.0790457630075 0
0.599377707802 -0.0775847092393 0
0.599866826983 -0.077144883434 0
0.599729546159 -0.0794379547929 0
0.599527172585 -0.078512555167 0
0.599391345639 -0.0775292636571 0
0.599726232332 -0.0760239904774 0
0.599510067987 -0.0773275173529 0
0.599381810734 -0.0782008613255 0