# vtk DataFile Version 2.0
Generated with Solid Solver
ASCII
DATASET UNSTRUCTURED_GRID
POINTS 999 float 
0.2 4.325 0.0
1.4 4.325 0.0
1.4 4.825 0.0
0.2 4.825 0.0
1.4 4.34523264049 0.0
1.4 4.36751203886 0.0
1.4 4.39204525371 0.0
1.4 4.4190602782 0.0
1.4 4.44880817466 0.0
1.4 4.48156541084 0.0
1.4 4.51763640748 0.0
1.4 4.5573564007 0.0
1.4 4.60109451608 0.0
1.4 4.64925723872 0.0
1.4 4.70229217343 0.0
1.4 4.76069218095 0.0
1.33333333333 4.825 0.0
1.26666666667 4.825 0.0
1.2 4.825 0.0
1.13333333333 4.825 0.0
1.06666666667 4.825 0.0
1.0 4.825 0.0
0.933333333334 4.825 0.0
0.866666666668 4.825 0.0
0.800000000001 4.825 0.0
0.733333333334 4.825 0.0
0.666666666668 4.825 0.0
0.600000000001 4.825 0.0
0.533333333334 4.825 0.0
0.466666666667 4.825 0.0
0.4 4.825 0.0
0.333333333334 4.825 0.0
0.266666666667 4.825 0.0
0.2 4.76069218095 0.0
0.2 4.70229217343 0.0
0.2 4.64925723872 0.0
0.2 4.60109451608 0.0
0.2 4.5573564007 0.0
0.2 4.51763640748 0.0
0.2 4.48156541084 0.0
0.2 4.44880817466 0.0
0.2 4.4190602782 0.0
0.2 4.39204525371 0.0
0.2 4.36751203886 0.0
0.2 4.34523264049 0.0
0.212131543907 4.30926329506 0.0
0.224675715302 4.29385348652 0.0
0.23762369102 4.27878141198 0.0
0.250966423879 4.26405760374 0.0
0.264694484585 4.24969246611 0.0
0.278798324214 4.23569599189 0.0
0.293267939266 4.22207810803 0.0
0.308093289028 4.20884826442 0.0
0.323263842145 4.19601585877 0.0
0.338769084145 4.18358978512 0.0
0.354597997314 4.17157887342 0.0
0.37073960121 4.15999145532 0.0
0.387182441982 4.14883575334 0.0
0.403915091795 4.13811952025 0.0
0.420925712897 4.12785033813 0.0
0.438202430937 4.11803537461 0.0
0.455733079095 4.10868154223 0.0
0.473505374364 4.09979539439 0.0
0.491506842655 4.09138316882 0.0
0.509724826085 4.0834507802 0.0
0.528146580414 4.07600377808 0.0
0.546759103951 4.06904741762 0.0
0.56554943677 4.06258654322 0.0
0.584504260001 4.05662573401 0.0
0.60361041518 4.0511691282 0.0
0.622854334779 4.04622060039 0.0
0.642222678753 4.04178358113 0.0
0.661701681839 4.03786122392 0.0
0.681277836375 4.03445624851 0.0
0.700937245817 4.03157107217 0.0
0.720666255912 4.02920769845 0.0
0.740450894784 4.02736780161 0.0
0.76027736978 4.02605266363 0.0
0.780131702711 4.02526321235 0.0
0.799999999998 4.025 0.0
0.819868297285 4.02526321235 0.0
0.839722630216 4.02605266363 0.0
0.859549105212 4.02736780161 0.0
0.879333744085 4.02920769845 0.0
0.89906275418 4.03157107217 0.0
0.918722163621 4.03445624851 0.0
0.938298318157 4.03786122392 0.0
0.957777321244 4.04178358113 0.0
0.977145665218 4.04622060039 0.0
0.996389584817 4.0511691282 0.0
1.01549574 4.05662573401 0.0
1.03445056323 4.06258654322 0.0
1.05324089605 4.06904741762 0.0
1.07185341958 4.07600377808 0.0
1.09027517391 4.0834507802 0.0
1.10849315734 4.09138316882 0.0
1.12649462563 4.09979539439 0.0
1.1442669209 4.10868154222 0.0
1.16179756906 4.1180353746 0.0
1.1790742871 4.12785033813 0.0
1.1960849082 4.13811952024 0.0
1.21281755802 4.14883575334 0.0
1.22926039879 4.15999145532 0.0
1.24540200269 4.17157887342 0.0
1.26123091585 4.18358978512 0.0
1.27673615785 4.19601585877 0.0
1.29190671097 4.20884826442 0.0
1.30673206073 4.22207810803 0.0
1.32120167579 4.23569599189 0.0
1.33530551541 4.24969246611 0.0
1.34903357612 4.26405760374 0.0
1.36237630898 4.27878141198 0.0
1.3753242847 4.29385348652 0.0
1.38786845609 4.30926329506 0.0
1.05632730172 4.46025283906 0.0
0.549964048968 4.4630053958 0.0
0.806135520676 4.31186690218 0.0
0.603895783049 4.26079310371 0.0
1.22984770884 4.38318704125 0.0
0.3703382852 4.38423552752 0.0
0.995322815839 4.25565031136 0.0
0.728315816804 4.1765935937 0.0
0.872128173905 4.17288724072 0.0
1.14059401893 4.27298468684 0.0
0.461553191009 4.27181671009 0.0
0.784706775856 4.56821390922 0.0
0.398287125272 4.57945970538 0.0
1.20625306554 4.58334743514 0.0
0.624100842742 4.1589824436 0.0
0.5257453845 4.18811776279 0.0
0.978502430793 4.15488737058 0.0
1.07419209812 4.18825154482 0.0
0.364313698077 4.28677035763 0.0
1.23509538257 4.28681716733 0.0
0.68124123937 4.39284548972 0.0
1.31679378691 4.35012066749 0.0
0.283206213094 4.35012066749 0.0
0.791498533126 4.11467141721 0.0
0.931481076052 4.3801344917 0.0
0.966719065571 4.62778042839 0.0
0.684451667517 4.11068036752 0.0
0.618335406951 4.62686910993 0.0
0.450982331762 4.19686171732 0.0
0.915674266355 4.10995633851 0.0
1.14900051594 4.19689012964 0.0
1.30193709687 4.4481448133 0.0
0.298574667609 4.44816296922 0.0
1.05734787542 4.34990107617 0.0
0.539273225177 4.35252599628 0.0
0.709896798149 4.27721026287 0.0
0.895708916005 4.26924194389 0.0
0.813273511364 4.43835766235 0.0
0.559289631452 4.13230879113 0.0
1.04001407307 4.13281539633 0.0
0.801161810585 4.23146244955 0.0
0.665113819616 4.52056650186 0.0
0.852577362173 4.09111846388 0.0
0.390256727869 4.2242806298 0.0
1.20974450479 4.22428104599 0.0
0.921542541183 4.52778058719 0.0
1.14030889032 4.36437344809 0.0
1.15600477272 4.46808538305 0.0
0.435243219029 4.4750581257 0.0
0.462045157798 4.36654654286 0.0
0.735806812738 4.08472269746 0.0
1.30082934537 4.29793772796 0.0
0.299170654625 4.29793772796 0.0
0.533651712118 4.26265983853 0.0
0.666130919144 4.21652131559 0.0
1.0676097303 4.26179469382 0.0
1.08054433577 4.58530946155 0.0
0.506773767255 4.56568295079 0.0
0.626745312844 4.10124420826 0.0
0.933845304214 4.2106954732 0.0
0.293717639664 4.55175000185 0.0
0.312505022079 4.66426411351 0.0
1.3058164124 4.55154930624 0.0
1.29054387065 4.66302765963 0.0
0.973467966326 4.09941619478 0.0
0.487935413164 4.15087084015 0.0
0.461549079751 4.68836834982 0.0
1.11203248746 4.15093503889 0.0
1.14453515393 4.70617370303 0.0
0.840217564202 4.68891146633 0.0
0.585347033288 4.20539048534 0.0
0.619177396637 4.34227576306 0.0
0.331644410315 4.24962190462 0.0
1.26835558968 4.24962190462 0.0
1.01536156978 4.19987473052 0.0
0.809331033562 4.07065709122 0.0
0.982321540791 4.33437358971 0.0
0.725600576914 4.66999651799 0.0
0.812291456186 4.16642942492 0.0
0.335887692543 4.33918235669 0.0
1.26344844681 4.34017131907 0.0
1.23449730504 4.49457441524 0.0
1.34334172095 4.40539551957 0.0
0.256658279045 4.40539551957 0.0
0.741646926828 4.34287908527 0.0
0.674799084703 4.16673768522 0.0
1.18647435526 4.30955189749 0.0
0.360563250283 4.49596479569 0.0
0.873716483853 4.33845499203 0.0
0.418704489949 4.31146264283 0.0
0.492670911224 4.22931614809 0.0
0.403480880356 4.19046776931 0.0
1.19651541215 4.1904686246 0.0
0.728649253738 4.46214546491 0.0
1.00883674467 4.40174664879 0.0
1.11035034557 4.23161841276 0.0
0.261968539765 4.3130079512 0.0
1.33803146023 4.3130079512 0.0
0.74649980488 4.1318354354 0.0
0.927597725248 4.1577597079 0.0
0.892956618256 4.07619338913 0.0
0.659794281787 4.07951387326 0.0
0.587663534405 4.09486537006 0.0
0.942353209926 4.07935300973 0.0
1.01493747319 4.09476013719 0.0
0.613130017774 4.41369803882 0.0
0.449373501074 4.15377191978 0.0
0.514840228377 4.12225850006 0.0
0.497057592 4.41333092106 0.0
1.15061382426 4.15379293084 0.0
1.08514419473 4.12228328152 0.0
0.745617635771 4.23098957592 0.0
0.87523452213 4.59853036549 0.0
0.855262884783 4.2258970831 0.0
1.01126200032 4.53280064162 0.0
1.09391916408 4.40632408872 0.0
1.04436265455 4.71482000827 0.0
0.314320181089 4.38773968607 0.0
1.28649331902 4.38743720145 0.0
0.771211579291 4.06316862024 0.0
0.432259099658 4.24006002157 0.0
0.698583889427 4.07144353526 0.0
1.16802128371 4.238862881 0.0
1.09587629216 4.3086676659 0.0
1.35920470355 4.35666960471 0.0
0.240795296449 4.35666960471 0.0
0.504003580654 4.30815758118 0.0
0.579942709371 4.5342075073 0.0
0.875915224914 4.12815792528 0.0
0.426503136644 4.40717733008 0.0
0.57541416445 4.30365301522 0.0
0.683877978289 4.33161848113 0.0
0.888061695889 4.44633509246 0.0
0.26012287522 4.49859249103 0.0
1.33987712478 4.49859249103 0.0
0.801393572636 4.37060096582 0.0
0.558460082533 4.72496728209 0.0
1.1741923373 4.41132830101 0.0
0.83220012886 4.12779415912 0.0
1.02815069622 4.30053276509 0.0
0.948308583502 4.2880204454 0.0
0.846588933095 4.50834596945 0.0
0.343666800815 4.43485820652 0.0
1.25632767671 4.43480360053 0.0
0.97849585731 4.47031535602 0.0
1.10170977548 4.51507265998 0.0
0.662193131828 4.26809398492 0.0
0.400503668388 4.26881657105 0.0
1.20117145985 4.26130427377 0.0
0.350957892513 4.21796558019 0.0
1.24904210749 4.21796558019 0.0
0.771964652188 4.18905379403 0.0
0.932165148285 4.72736281402 0.0
0.373672364094 4.73321357765 0.0
0.760245937722 4.28409350779 0.0
0.848718469252 4.05767763075 0.0
1.23385612561 4.7358294747 0.0
0.846421485813 4.28065918421 0.0
0.651597058631 4.13043284014 0.0
0.650489852552 4.72138045504 0.0
0.58457834847 4.16375088261 0.0
0.48701309933 4.18859927013 0.0
0.708495738406 4.58856947756 0.0
1.11203398596 4.18878062515 0.0
0.54865558244 4.10250047869 0.0
1.05126102377 4.10234629471 0.0
0.300013757486 4.26259646442 0.0
1.29998624251 4.26259646442 0.0
0.9465032388 4.12718070354 0.0
0.708587583337 4.14146095907 0.0
0.973348904468 4.19537871864 0.0
0.628721855632 4.19538356945 0.0
0.380175010018 4.34021880077 0.0
0.662092932411 4.45899041267 0.0
1.05133526787 4.22221992007 0.0
0.528087045766 4.64327882187 0.0
1.22233124543 4.33521693908 0.0
1.19001193434 4.36273586668 0.0
0.853024099244 4.39544003492 0.0
0.542800296246 4.22324366905 0.0
0.247706318737 4.45239119247 0.0
1.35229368126 4.45239119247 0.0
0.599153768578 4.12953797005 0.0
1.01616570494 4.16227683178 0.0
0.744705786938 4.40569544575 0.0
1.31929001115 4.73702550052 0.0
0.777615355331 4.15113602511 0.0
1.33132411895 4.60631378639 0.0
0.265621610877 4.60975488866 0.0
0.532023338888 4.15374454388 0.0
1.0697792195 4.15241429251 0.0
0.286371037106 4.73010312914 0.0
0.497725885905 4.50153668256 0.0
0.46053455822 4.31587947599 0.0
0.433799237968 4.54629400991 0.0
0.388624781906 4.65094200004 0.0
0.554823673752 4.40451940232 0.0
1.1421595646 4.31818301431 0.0
1.14760043966 4.61655103139 0.0
1.21258698805 4.65320200685 0.0
1.16279096046 4.53292621409 0.0
0.995762647814 4.12508772517 0.0
0.456229040627 4.61456685246 0.0
0.707289391156 4.21520271873 0.0
0.763036833302 4.74285445535 0.0
0.78386198569 4.49787013126 0.0
[...]
POINT_DATA 999
VECTORS Displacement float
0.6 2.07973387559e-14 0
0.6 -2.49139733122e-14 0
0.6 0.0 0
0.6 0.0 0
0.6 -2.46491560915e-14 0
0.6 -2.46487193626e-14 0
0.6 -2.42584525882e-14 0
0.6 -2.42468866695e-14 0
0.6 -2.38742667821e-14 0
0.6 -2.31565434763e-14 0
0.6 -2.24150020987e-14 0
0.6 -2.10123595383e-14 0
0.6 -1.89543923465e-14 0
0.6 -1.64506031731e-14 0
0.6 -1.30244163834e-14 0
0.6 -7.64108070319e-15 0
0.6 0.0 0
0.6 0.0 0
0.6 0.0 0
0.6 0.0 0
0.6 0.0 0
0.6 0.0 0
0.6 0.0 0
0.6 0.0 0
0.6 0.0 0
0.6 0.0 0
0.6 0.0 0
0.6 0.0 0
0.6 0.0 0
0.6 0.0 0
0.6 0.0 0
0.6 0.0 0
0.6 0.0 0
0.6 6.53438464454e-15 0
0.6 1.06899231837e-14 0
0.6 1.3671752635e-14 0
0.6 1.62245887084e-14 0
0.6 1.79293277399e-14 0
0.6 1.88524241721e-14 0
0.6 1.8795664422e-14 0
0.6 1.90575810225e-14 0
0.6 1.94630669754e-14 0
0.6 2.05986141717e-14 0
0.6 2.06395699929e-14 0
0.6 2.08727931792e-14 0
0.6 2.01859508662e-14 0
0.6 1.97181614964e-14 0
0.6 1.91758561901e-14 0
0.6 1.84924940476e-14 0
0.6 1.79003654496e-14 0
0.6 1.74214435884e-14 0
0.6 1.71351678713e-14 0
0.6 1.64785095825e-14 0
0.6 1.59432521186e-14 0
0.6 1.52284525873e-14 0
0.6 1.48145327099e-14 0
0.6 1.4521142138e-14 0
0.6 1.40609823693e-14 0
0.6 1.3500188132e-14 0
0.6 1.29021048667e-14 0
0.6 1.26956186404e-14 0
0.6 1.19286834666e-14 0
0.6 1.13429993696e-14 0
0.6 1.02568403726e-14 0
0.6 9.89968333818e-15 0
0.6 9.25057462756e-15 0
0.6 8.85181478495e-15 0
0.6 7.93855240993e-15 0
0.6 7.41143040225e-15 0
0.6 7.0789778551e-15 0
0.6 6.6797593897e-15 0
0.6 5.92541534898e-15 0
0.6 5.10030806931e-15 0
0.6 4.25713076415e-15 0
0.6 3.45867652768e-15 0
0.6 2.9095616939e-15 0
0.6 2.59789754362e-15 0
0.6 1.89171903383e-15 0
0.6 1.51361637545e-15 0
0.6 7.77697185586e-16 0
0.6 9.66987632941e-17 0
0.6 -1.1118344413e-15 0
0.6 -1.96073217225e-15 0
0.6 -2.66705443643e-15 0
0.6 -3.56805850704e-15 0
0.6 -4.57398736451e-15 0
0.6 -5.19741724309e-15 0
0.6 -6.07979834427e-15 0
0.6 -6.70404697485e-15 0
0.6 -7.41697725737e-15 0
0.6 -8.42120192915e-15 0
0.6 -9.43044825815e-15 0
0.6 -1.02208975182e-14 0
0.6 -1.09835182293e-14 0
0.6 -1.15376546008e-14 0
0.6 -1.2042073715e-14 0
0.6 -1.24723455574e-14 0
0.6 -1.29691622925e-14 0
0.6 -1.31505491732e-14 0
0.6 -1.35621486965e-14 0
0.6 -1.44927720397e-14 0
0.6 -1.52460551867e-14 0
0.6 -1.61898226464e-14 0
0.6 -1.69149950611e-14 0
0.6 -1.76688077703e-14 0
0.6 -1.83005304713e-14 0
0.6 -1.89849696905e-14 0
0.6 -1.94282094638e-14 0
0.6 -2.0150306185e-14 0
0.6 -2.08977461045e-14 0
0.6 -2.18032258106e-14 0
0.6 -2.24611515944e-14 0
0.6 -2.31507869741e-14 0
0.6 -2.38726425107e-14 0
0.6 -5.70336214086e-15 0
0.6 5.86598472576e-15 0
0.6 5.79245923351e-16 0
0.6 7.17371774486e-15 0
0.6 -1.46316528294e-14 0
0.6 1.24904414007e-14 0
0.6 -6.20214010941e-15 0
0.6 3.48439661878e-15 0
0.6 -2.0380527444e-15 0
0.6 -1.23202933966e-14 0
0.6 1.09030868905e-14 0
0.6 9.61989412196e-16 0
0.6 6.78512549892e-15 0
0.6 -7.75673176729e-15 0
0.6 6.84671191521e-15 0
0.6 9.49389919936e-15 0
0.6 -6.77728480639e-15 0
0.6 -1.03759598828e-14 0
0.6 1.37997048529e-14 0
0.6 -1.62544770229e-14 0
0.6 3.94161640999e-15 0
0.6 -1.93011123244e-14 0
0.6 1.60951838585e-14 0
0.6 1.01897859749e-15 0
0.6 -2.81309128316e-15 0
0.6 -1.63539895139e-15 0
0.6 4.66827759651e-15 0
0.6 2.29631188472e-15 0
0.6 1.16540381656e-14 0
0.6 -3.96786561873e-15 0
0.6 -1.29193068171e-14 0
0.6 -1.6716609837e-14 0
0.6 1.40219080463e-14 0
0.6 -7.86528495248e-15 0
0.6 7.73436183154e-15 0
0.6 3.9100360039e-15 0
0.6 -2.46970793044e-15 0
0.6 5.23284249473e-16 0
0.6 8.55268717575e-15 0
0.6 -9.86757097315e-15 0
0.6 8.16542155893e-16 0
0.6 2.85315605719e-15 0
0.6 -1.89739067498e-15 0
0.6 1.33214856495e-14 0
0.6 -1.54083357011e-14 0
0.6 -1.65383380003e-15 0
0.6 -1.12306289093e-14 0
0.6 -8.95934945304e-15 0
0.6 8.25606038682e-15 0
0.6 9.82608053503e-15 0
0.6 3.05058305785e-15 0
0.6 -1.90859832785e-14 0
0.6 1.58130658688e-14 0
0.6 8.76846165234e-15 0
0.6 5.3960690766e-15 0
0.6 -9.36080092524e-15 0
0.6 -3.90149109036e-15 0
0.6 4.63978429958e-15 0
0.6 6.65123180793e-15 0
0.6 -4.32073492961e-15 0
0.6 1.13450326901e-14 0
0.6 6.91879195192e-15 0
0.6 -1.38172928343e-14 0
0.6 -8.07672006175e-15 0
0.6 -6.57337045155e-15 0
0.6 1.06390999069e-14 0
0.6 3.01920581336e-15 0
0.6 -1.21566452799e-14 0
0.6 -2.83550910348e-15 0
0.6 1.12181251169e-16 0
0.6 7.91052466668e-15 0
0.6 5.79440412182e-15 0
0.6 1.52533991846e-14 0
0.6 -1.76343374318e-14 0
0.6 -7.75722092788e-15 0
0.6 2.890390724e-16 0
0.6 -4.90249244608e-15 0
0.6 8.62732874955e-16 0
0.6 2.66562140724e-16 0
0.6 1.4237012093e-14 0
0.6 -1.67767418503e-14 0
0.6 -1.16503227625e-14 0
0.6 -2.00966358034e-14 0
0.6 1.67326371761e-14 0
0.6 2.83385870456e-15 0
0.6 5.40120399614e-15 0
0.6 -1.38887781762e-14 0
0.6 1.02136025488e-14 0
0.6 -1.43869462744e-15 0
0.6 1.18339445143e-14 0
0.6 1.01720010399e-14 0
0.6 1.33220748281e-14 0
0.6 -1.47629199519e-14 0
0.6 2.46870938605e-15 0
0.6 -5.01804787015e-15 0
0.6 -1.14830595895e-14 0
0.6 1.76852686282e-14 0
0.6 -2.08061983861e-14 0
0.6 2.62746070025e-15 0
0.6 -4.25279570582e-15 0
0.6 -3.38641932063e-15 0
0.6 5.43285154906e-15 0
0.6 7.66649425584e-15 0
0.6 -5.01861649327e-15 0
0.6 -8.61331233505e-15 0
0.6 5.3147837003e-15 0
0.6 1.2005123982e-14 0
0.6 9.80365539581e-15 0
0.6 7.85814967523e-15 0
0.6 -1.30379333245e-14 0
0.6 -1.17971156964e-14 0
0.6 2.82598806275e-15 0
0.6 -2.98019643183e-16 0
0.6 -1.12332057245e-15 0
0.6 -3.35844593135e-15 0
0.6 -8.38178487169e-15 0
0.6 -1.29671536518e-15 0
0.6 1.43291184008e-14 0
0.6 -1.68808474934e-14 0
0.6 2.01996949269e-15 0
0.6 1.19244431632e-14 0
0.6 3.86889835228e-15 0
0.6 -1.36988610077e-14 0
0.6 -9.93743521019e-15 0
0.6 -2.15928109239e-14 0
0.6 1.82977567248e-14 0
0.6 9.39785338038e-15 0
0.6 4.13536394803e-15 0
0.6 -2.4843409285e-15 0
0.6 1.01638099488e-14 0
0.6 7.20829158586e-15 0
0.6 4.52047914111e-15 0
0.6 -1.18927915535e-15 0
0.6 1.48257888744e-14 0
0.6 -1.79695191978e-14 0
0.6 6.34359334679e-16 0
0.6 1.48539165216e-15 0
0.6 -1.1567375256e-14 0
0.6 -5.52984601324e-16 0
0.6 -7.25166591482e-15 0
0.6 -4.13395401005e-15 0
0.6 -1.40770603391e-16 0
0.6 1.25625067456e-14 0
0.6 -1.44758144202e-14 0
0.6 -3.38995209072e-15 0
0.6 -5.96658163553e-15 0
0.6 5.4518206266e-15 0
0.6 1.27630502727e-14 0
0.6 -1.48717576925e-14 0
0.6 1.48751136816e-14 0
0.6 -1.68345760222e-14 0
0.6 1.76119613892e-15 0
0.6 -3.83472371652e-16 0
0.6 2.88610699283e-15 0
0.6 2.07680225384e-15 0
0.6 -1.53151661136e-15 0
0.6 -3.23957430636e-15 0
0.6 -6.70259527196e-16 0
0.6 6.0177812583e-15 0
0.6 8.77898666197e-16 0
0.6 8.05432629431e-15 0
0.6 1.05841738147e-14 0
0.6 1.71087827713e-15 0
0.6 -1.19522158355e-14 0
0.6 8.64680650255e-15 0
0.6 -1.03919177625e-14 0
0.6 1.62152535909e-14 0
0.6 -1.90234930963e-14 0
0.6 -5.25157501338e-15 0
0.6 4.25494216233e-15 0
0.6 -6.08978316096e-15 0
0.6 6.69336550489e-15 0
0.6 1.25965493503e-14 0
0.6 3.7497373672e-15 0
0.6 -9.08256097938e-15 0
0.6 2.83666328581e-15 0
0.6 -1.52349824146e-14 0
0.6 -1.34050846884e-14 0
0.6 -6.5367440866e-16 0
0.6 8.81955430025e-15 0
0.6 1.65496500908e-14 0
0.6 -1.9992930489e-14 0
0.6 7.4817207434e-15 0
0.6 -8.60941778782e-15 0
0.6 2.40962334152e-15 0
0.6 -5.42288430144e-15 0
0.6 1.49551013728e-15 0
0.6 -1.3030880616e-14 0
0.6 1.10985888769e-14 0
0.6 9.31771199403e-15 0
0.6 -1.08955658532e-14 0
0.6 4.92229843211e-15 0
0.6 5.97757421536e-15 0
0.6 1.03846083965e-14 0
0.6 6.49500428267e-15 0
0.6 4.86920167609e-15 0
0.6 6.62087348632e-15 0
0.6 -1.17889326503e-14 0
0.6 -4.90071197995e-15 0
0.6 -5.866624876e-15 0
0.6 -7.49838831087e-15 0
0.6 -7.83561148446e-15 0
0.6 4.58755252705e-15 0
0.6 4.18612031849e-15 0
0.6 1.59121169525e-16 0
0.6 1.26169765071e-15 0
0.6 -3.02858231585e-15 0
0.6 1.29602738199e-14 0
0.6 -2.53140399291e-15 0
0.6 -1.38516184414e-14 0
0.6 -1.44868088306e-14 0
0.6 2.82465067867e-15 0
0.6 1.48818421897e-14 0
0.6 -1.77537371762e-14 0
0.6 1.41497559365e-14 0
0.6 -1.6022791615e-14 0
0.6 4.44075308769e-15 0
0.6 1.12188680711e-14 0
0.6 2.27398126289e-15 0
0.6 2.09421418891e-15 0
0.6 1.40896604996e-14 0
0.6 -1.63253610382e-14 0
0.6 1.18226650937e-14 0
0.6 -1.17926183116e-14 0
0.6 -4.84376530574e-15 0
0.6 1.73954281729e-14 0
0.6 -2.04683948618e-14 0
0.6 -2.45291844628e-15 0
0.6 1.02396375126e-14 0
0.6 1.89494058156e-14 0
0.6 -2.22336504636e-14 0
0.6 6.80213621618e-15 0
0.6 -7.45804777277e-16 0
0.6 -9.71588820292e-15 0
0.6 7.94269589571e-15 0
0.6 9.69431694223e-15 0
0.6 3.85574709643e-15 0
0.6 8.23222877855e-16 0
0.6 -3.89088122124e-16 0
0.6 -9.50841186607e-15 0
0.6 -1.08815561064e-14 0
0.6 6.07148941731e-15 0
0.6 -4.20904618341e-15 0
0.6 -6.65272445626e-15 0
0.6 -7.56755354733e-15 0
0.6 1.54229782023e-14 0
0.6 -1.8333795494e-14 0
0.6 -1.77657432576e-15 0
0.6 8.95211996884e-15 0
0.6 7.66923639081e-15 0
0.6 -9.39104737714e-15 0
0.6 2.66848365016e-15 0
0.6 5.41005385572e-16 0
0.6 1.11362677235e-14 0
0.6 -1.25545685912e-14 0
0.6 1.11468477161e-14 0
0.6 -1.26193986503e-14 0
0.6 1.37729325823e-14 0
0.6 -1.69527404792e-14 0
0.6 6.75702527784e-15 0
0.6 -7.70846732466e-15 0
0.6 8.86479857677e-15 0
0.6 -2.6728805068e-15 0
0.6 -2.60028235736e-15 0
0.6 -2.62062771463e-15 0
0.6 -2.2178053424e-14 0
0.6 1.83315386106e-14 0
0.6 1.2425681113e-14 0
0.6 -2.60244349506e-15 0
0.6 -1.38143548616e-14 0
0.6 4.79103511398e-15 0
0.6 -4.88351708903e-16 0
0.6 -1.27750885845e-15 0
0.6 -6.753305635e-15 0
0.6 6.64867310129e-15 0
0.6 -1.85674627846e-14 0
0.6 1.56105941281e-14 0
0.6 -1.06451756573e-14 0
0.6 8.95396854909e-15 0
0.6 -3.52148103201e-15 0
0.6 -1.34247360285e-14 0
0.6 4.66496403169e-15 0
0.6 1.22105073208e-15 0
0.6 -9.08531307683e-16 0
0.6 8.25190028302e-15 0
0.6 1.19387872254e-14 0
0.6 1.5542530754e-14 0
0.6 -1.79260392301e-14 0
0.6 -3.47553468302e-16 0
0.6 -3.18132627376e-15 0
0.6 -4.85012362215e-16 0
0.6 -1.0180354237e-14 0
0.6 1.40427394038e-14 0
0.6 -1.6824844125e-14 0
0.6 -5.66651120253e-15 0
0.6 9.35293144572e-15 0
0.6 1.32712296275e-15 0
0.6 -1.02068599686e-14 0
0.6 3.29809853927e-15 0
0.6 6.04637222995e-15 0
0.6 -4.17530152497e-15 0
0.6 -8.72258093555e-15 0
0.6 -6.52157415581e-15 0
0.6 -5.82299582281e-15 0
0.6 5.06685384512e-15 0
0.6 8.24763723919e-15 0
0.6 5.9416679873e-15 0
0.6 6.9061246322e-15 0
0.6 1.48590253154e-14 0
0.6 -1.75163368777e-14 0
0.6 1.62045219113e-14 0
0.6 -1.8771340892e-14 0
0.6 -3.15451297987e-15 0
0.6 -1.52971146292e-14 0
0.6 -4.7622895662e-15 0
0.6 -5.318725313e-15 0
0.6 8.31706264385e-15 0
0.6 3.09531869457e-15 0
0.6 1.28079691114e-14 0
0.6 1.75501428576e-14 0
0.6 -2.07121945756e-14 0
0.6 -7.82241297787e-17 0
0.6 9.96140955216e-15 0
0.6 1.10230805476e-14 0
0.6 9.20089194528e-15 0
0.6 -1.57613539034e-15 0
0.6 -5.28140184336e-15 0
0.6 6.54669817306e-15 0
0.6 -1.03633329099e-14 0
0.6 -1.7997956799e-15 0
0.6 8.25042914822e-15 0
0.6 -1.24890393599e-14 0
0.6 1.3103667711e-15 0
0.6 2.40686224075e-15 0
0.6 -1.13078225155e-14 0
0.6 1.8772714037e-15 0
0.6 9.38724429586e-15 0
0.6 -9.67833232905e-15 0
0.6 9.60809187845e-15 0
0.6 -1.13715182192e-14 0
0.6 5.93167853925e-16 0
0.6 -2.14255324429e-16 0
0.6 1.50114590315e-15 0
0.6 -2.13963864613e-14 0
0.6 1.77459037715e-14 0
0.6 7.37675765983e-15 0
0.6 6.29983696312e-15 0
0.6 2.35558846641e-16 0
0.6 -6.01314065115e-15 0
0.6 -7.74892406858e-15 0
0.6 1.07232757488e-14 0
0.6 1.18280638939e-14 0
0.6 4.70462421306e-15 0
0.6 -1.20721518528e-14 0
0.6 -1.28295644584e-14 0
0.6 -9.96166763817e-15 0
0.6 -1.98160303899e-15 0
0.6 1.39445501414e-15 0
0.6 2.30026662239e-15 0
0.6 -4.15011164714e-15 0
0.6 3.3286125952e-15 0
0.6 5.2365275693e-15 0
0.6 -1.56127734508e-14 0
0.6 -2.04093576979e-14 0
0.6 1.69528171793e-14 0
0.6 4.90157491734e-15 0
0.6 -1.72411011355e-14 0
0.6 1.46056538566e-14 0
0.6 1.4834201619e-16 0
0.6 7.55670072988e-15 0
0.6 -3.67292685407e-16 0
0.6 -1.09016706565e-15 0
0.6 -1.56029390028e-15 0
0.6 1.40200016628e-14 0
0.6 -1.52016128359e-14 0
0.6 1.36452719552e-14 0
0.6 -2.99794139473e-15 0
0.6 -8.938709119e-15 0
0.6 7.3326459775e-15 0
0.6 -5.44248960899e-15 0
0.6 2.6714156124e-15 0
0.6 4.86688405085e-15 0
0.6 4.51913776162e-15 0
0.6 4.90488750927e-16 0
0.6 1.11152215071e-14 0
0.6 3.1397704385e-15 0
0.6 -1.41492506748e-15 0
0.6 1.52361049824e-15 0
0.6 3.77572816031e-15 0
0.6 9.03232966748e-15 0
0.6 1.25020189203e-14 0
0.6 -1.36565469662e-14 0
0.6 -1.10482625726e-14 0
0.6 -3.3837434885e-16 0
0.6 2.76309433532e-15 0
0.6 8.15502176801e-15 0
0.6 -1.44324092905e-14 0
0.6 1.24468484933e-14 0
0.6 1.42746230221e-15 0
0.6 -7.32499821547e-15 0
0.6 -1.29426745815e-14 0
0.6 2.0222885603e-15 0
0.6 -3.57291664934e-15 0
0.6 1.64621680364e-14 0
0.6 -1.97051653954e-14 0
0.6 1.88238851796e-14 0
0.6 -2.18778390956e-14 0
0.6 -2.3510129699e-15 0
0.6 1.109993431e-14 0
0.6 7.3882662644e-15 0
0.6 -9.28042331194e-15 0
0.6 -7.73803947076e-15 0
0.6 -6.28442627037e-15 0
0.6 -1.60767198747e-14 0
0.6 1.94382330217e-14 0
0.6 -2.30175997285e-14 0
0.6 -7.49939236236e-16 0
0.6 -4.66075370765e-15 0
0.6 9.8860259956e-15 0
0.6 1.49799075768e-14 0
0.6 -1.79836034491e-14 0
0.6 1.26712999506e-14 0
0.6 1.78748255546e-15 0
0.6 -1.47910745839e-14 0
0.6 -3.72101692082e-15 0
0.6 2.53196901573e-15 0
0.6 7.79582542035e-15 0
0.6 -1.15598490958e-14 0
0.6 1.30363947867e-14 0
0.6 -1.48299509486e-14 0
0.6 -2.77566446746e-15 0
0.6 1.05071879542e-14 0
0.6 2.47864840759e-15 0
0.6 1.70685579101e-14 0
0.6 -2.01667044954e-14 0
0.6 3.47894860263e-15 0
0.6 1.26506261727e-14 0
0.6 -1.33730784035e-14 0
0.6 2.9976855767e-15 0
0.6 5.35174806984e-15 0
0.6 8.27010358418e-16 0
0.6 1.09667815731e-14 0
0.6 2.97025954218e-15 0
0.6 -1.27169809491e-14 0
0.6 -1.70391152756e-16 0
0.6 -1.22950349668e-14 0
0.6 -1.47797413166e-15 0
0.6 -1.86658855796e-14 0
0.6 1.56707843439e-14 0
0.6 9.34699902833e-15 0
0.6 1.44731947532e-14 0
0.6 -1.69941694573e-14 0
0.6 -1.11240023301e-14 0
0.6 1.47278997566e-14 0
0.6 -1.68719026866e-14 0
0.6 1.65560597659e-14 0
0.6 -2.00391570331e-14 0
0.6 6.56367577034e-15 0
0.6 -9.59155292017e-16 0
0.6 -9.62139667412e-15 0
0.6 -1.05866091206e-15 0
0.6 -1.20138752093e-14 0
0.6 -1.66960598956e-15 0
0.6 8.51351319723e-15 0
0.6 -4.98298668378e-15 0
0.6 -4.14493430631e-15 0
0.6 -1.49137813204e-14 0
0.6 1.27791811906e-14 0
0.6 1.25658081002e-14 0
0.6 1.01555794063e-14 0
0.6 -5.29221009476e-15 0
0.6 4.10727777303e-15 0
0.6 -2.81795504281e-15 0
0.6 -3.52741412575e-15 0
0.6 -1.93041746167e-15 0
0.6 1.01685578397e-15 0
0.6 -1.03420164284e-14 0
0.6 6.31358767065e-15 0
0.6 -6.9872534205e-15 0
0.6 -1.21724811809e-14 0
0.6 2.0598688341e-16 0
0.6 6.73429077578e-15 0
0.6 2.03364432632e-15 0
0.6 1.59112794834e-15 0
0.6 3.61770977605e-15 0
0.6 7.95481753514e-15 0
0.6 3.65968705e-15 0
0.6 5.04960468775e-15 0
0.6 5.52521532359e-15 0
0.6 -5.97966538894e-15 0
0.6 -7.34126760799e-15 0
0.6 1.94618816457e-14 0
0.6 -2.31052690051e-14 0
0.6 -1.7943089777e-14 0
0.6 1.48216872196e-14 0
0.6 1.62426573093e-15 0
0.6 3.38704996479e-15 0
0.6 1.13741840267e-14 0
0.6 -4.35473816543e-15 0
0.6 -3.71859436012e-15 0
0.6 2.29607786075e-15 0
0.6 -1.32197243976e-14 0
0.6 -2.0449523923e-15 0
0.6 -9.48615948503e-15 0
0.6 -4.06045487446e-15 0
0.6 1.13436256382e-14 0
0.6 -4.21714801388e-15 0
0.6 -1.27299021359e-14 0
0.6 1.46593245048e-14 0
0.6 -1.66953414904e-14 0
0.6 4.55067180378e-15 0
0.6 -8.2574215762e-15 0
0.6 -1.06224866929e-15 0
0.6 -3.06950272286e-15 0
0.6 -2.11424536925e-15 0
0.6 6.66438500866e-15 0
0.6 -6.72810198956e-15 0
0.6 8.97915083952e-15 0
0.6 4.27156599651e-16 0
0.6 1.67594818236e-14 0
0.6 -2.0005401712e-14 0
0.6 1.80588372093e-15 0
0.6 -1.34138934257e-14 0
0.6 -1.69210955298e-14 0
0.6 1.42809978914e-14 0
0.6 3.7651040987e-15 0
0.6 8.12734607031e-15 0
0.6 -1.53783548134e-16 0
0.6 7.29780460231e-15 0
0.6 -1.00236770222e-14 0
0.6 -8.53902076708e-15 0
0.6 7.10344639319e-15 0
0.6 -5.6366729374e-15 0
0.6 1.65252587985e-14 0
0.6 -2.01206454768e-14 0
0.6 3.23025670093e-15 0
0.6 -7.59797314812e-15 0
0.6 5.4680119134e-15 0
0.6 5.89486532413e-15 0
0.6 1.11235583957e-14 0
0.6 -6.78311945205e-16 0
0.6 -3.89644810104e-15 0
0.6 3.72669682792e-15 0
0.6 -1.28189154664e-14 0
0.6 4.13439351096e-16 0
0.6 -5.19930500411e-15 0
0.6 1.34605706532e-14 0
0.6 -8.15246483899e-15 0
0.6 -9.57603145838e-15 0
0.6 -5.55019748803e-15 0
0.6 1.54030729188e-14 0
0.6 -1.81797339749e-14 0
0.6 1.17483628743e-14 0
0.6 -1.42260636706e-14 0
0.6 1.27665859745e-14 0
0.6 1.02031910819e-15 0
0.6 1.89237724708e-14 0
0.6 -2.29660790942e-14 0
0.6 1.2217869068e-14 0
0.6 -8.88589435778e-15 0
0.6 -1.29777204235e-14 0
0.6 8.6152745695e-15 0
0.6 4.31150907403e-15 0
0.6 4.64467247608e-16 0
0.6 3.9117758957e-15 0
0.6 -6.96919772927e-15 0
0.6 2.29645298428e-16 0
0.6 3.21499213886e-15 0
0.6 5.59285089135e-15 0
0.6 -2.74445450213e-15 0
0.6 1.24182936904e-15 0
0.6 6.6423735477e-16 0
0.6 7.54246016182e-15 0
0.6 1.05204690584e-14 0
0.6 -3.80669698422e-15 0
0.6 -1.41723907272e-15 0
0.6 -9.83627089923e-15 0
0.6 -1.411929739e-14 0
0.6 -2.1029641582e-15 0
0.6 1.99364043825e-14 0
0.6 -2.35136648022e-14 0
0.6 -1.20326369783e-14 0
0.6 1.36298773702e-14 0
0.6 -1.44613327455e-14 0
0.6 8.71032441132e-15 0
0.6 6.9443470617e-16 0
0.6 7.59440422834e-15 0
0.6 9.92345056868e-15 0
0.6 -8.75364710984e-15 0
0.6 -1.04434404009e-14 0
0.6 5.61366098995e-16 0
0.6 -1.17881601691e-14 0
0.6 1.33359155229e-14 0
0.6 -1.55362085968e-14 0
0.6 -1.34946005951e-15 0
0.6 6.53607773601e-15 0
0.6 1.64317395752e-14 0
0.6 -1.95708600121e-14 0
0.6 -4.62651151291e-15 0
0.6 1.82226091516e-14 0
0.6 -2.14203564233e-14 0
0.6 -1.11155791688e-14 0
0.6 -5.88066859815e-15 0
0.6 3.69561030958e-17 0
0.6 1.43729942562e-14 0
0.6 -1.61855628083e-14 0
0.6 -9.69933605448e-15 0
0.6 1.02273416174e-14 0
0.6 1.4091824539e-14 0
0.6 -1.60328379629e-14 0
0.6 2.21858651994e-15 0
0.6 1.94573129473e-14 0
0.6 -2.26118447511e-14 0
0.6 6.90984177049e-15 0
0.6 5.71845138686e-15 0
0.6 1.36005398539e-14 0
0.6 -1.57425886524e-14 0
0.6 1.16987028609e-14 0
0.6 9.06762459164e-15 0
0.6 3.3181166412e-15 0
0.6 1.11347933639e-14 0
0.6 -6.30679027668e-15 0
0.6 8.87864094589e-15 0
0.6 -1.05174859517e-14 0
0.6 -1.32423490872e-14 0
0.6 3.21503513862e-15 0
0.6 1.53442302247e-14 0
0.6 5.4086415119e-15 0
0.6 -1.76734539707e-14 0
0.6 3.59200064452e-15 0
0.6 1.00707943244e-14 0
0.6 -1.20731218545e-14 0
0.6 9.65680033336e-15 0
0.6 -2.52676118983e-16 0
0.6 9.67912459463e-15 0
0.6 -1.24991686623e-14 0
0.6 4.75342726658e-15 0
0.6 8.34476742836e-15 0
0.6 -2.86623841861e-15 0
0.6 8.18704946656e-15 0
0.6 1.0255839709e-14 0
0.6 -2.50576889882e-16 0
0.6 1.67992809715e-14 0
0.6 -1.94250014183e-14 0
0.6 6.40309114818e-15 0
0.6 -3.68239755873e-15 0
0.6 -1.55207429049e-14 0
0.6 -1.58457589956e-14 0
0.6 1.34860523329e-14 0
0.6 1.48207592359e-15 0
0.6 6.37406149411e-16 0
0.6 3.35577778937e-15 0
0.6 1.27419156386e-14 0
0.6 3.64641116824e-15 0
0.6 4.46106869795e-15 0
0.6 1.30735040285e-14 0
0.6 -7.94361332778e-15 0
0.6 7.54542608473e-15 0
0.6 4.41652619898e-15 0
0.6 1.05103109497e-14 0
0.6 -4.53237031558e-15 0
0.6 4.58462926064e-16 0
0.6 -7.67118678228e-15 0
0.6 7.33517646027e-16 0
0.6 -9.37353503752e-16 0
0.6 -6.62102124403e-15 0
0.6 1.21306647863e-14 0
0.6 -1.83256369873e-16 0
0.6 -8.76715701243e-15 0
0.6 1.1885695199e-15 0
0.6 4.20693408196e-15 0
0.6 -1.96925087364e-16 0
0.6 5.70722871091e-15 0
0.6 1.70328719114e-14 0
0.6 -2.04116145599e-14 0
0.6 5.38497268003e-15 0
0.6 -1.2404639103e-14 0
0.6 8.62563268466e-15 0
0.6 -9.99053385616e-15 0
0.6 6.31487312225e-15 0
0.6 4.88253803941e-15 0
0.6 7.97395772619e-15 0
0.6 -2.21915853737e-15 0
0.6 1.34199452786e-15 0
0.6 -1.073068869e-14 0
0.6 -1.0073578665e-15 0
0.6 -5.86894934166e-15 0
0.6 5.72655611388e-15 0
0.6 5.50490014981e-15 0
0.6 -3.72391594087e-15 0
0.6 1.04798644977e-14 0
0.6 2.28132991302e-15 0
0.6 -6.27552729847e-15 0
0.6 2.29449331758e-16 0
0.6 -5.01058092055e-15 0
0.6 4.08080421988e-15 0
0.6 -3.47712623551e-15 0
0.6 1.30305628605e-15 0
0.6 -1.20166410185e-14 0
0.6 -3.48112478362e-15 0
0.6 4.71617562374e-15 0
0.6 7.7423726967e-15 0
0.6 4.46999224254e-16 0
0.6 6.00568234775e-15 0
0.6 3.27620027329e-15 0
0.6 -8.57218825989e-15 0
0.6 7.20233570825e-15 0
0.6 1.18799295804e-14 0
0.6 -1.61467142577e-14 0
0.6 7.2523768672e-15 0
0.6 -1.42973488417e-14 0
0.6 1.78639531347e-14 0
0.6 -2.18768100493e-14 0
0.6 -4.93818813179e-15 0
0.6 1.11422555024e-14 0
0.6 -2.5200518422e-15 0