# vtk DataFile Version 2.0
Generated with Solid Solver
ASCII
DATASET UNSTRUCTURED_GRID
POINTS 999 float 
0.2 4.325 0.0
1.4 4.325 0.0
1.4 4.825 0.0
0.2 4.825 0.0
1.4 4.34523264049 0.0
1.4 4.36751203886 0.0
1.4 4.39204525371 0.0
1.4 4.4190602782 0.0
1.4 4.44880817466 0.0
1.4 4.48156541084 0.0
1.4 4.51763640748 0.0
1.4 4.5573564007 0.0
1.4 4.60109451608 0.0
1.4 4.64925723872 0.0
1.4 4.70229217343 0.0
1.4 4.76069218095 0.0
1.33333333333 4.825 0.0
1.26666666667 4.825 0.0
1.2 4.825 0.0
1.13333333333 4.825 0.0
1.06666666667 4.825 0.0
1.0 4.825 0.0
0.933333333334 4.825 0.0
0.866666666668 4.825 0.0
0.800000000001 4.825 0.0
0.733333333334 4.825 0.0
0.666666666668 4.825 0.0
0.600000000001 4.825 0.0
0.533333333334 4.825 0.0
0.466666666667 4.825 0.0
0.4 4.825 0.0
0.333333333334 4.825 0.0
0.266666666667 4.825 0.0
0.2 4.76069218095 0.0
0.2 4.70229217343 0.0
0.2 4.64925723872 0.0
0.2 4.60109451608 0.0
0.2 4.5573564007 0.0
0.2 4.51763640748 0.0
0.2 4.48156541084 0.0
0.2 4.44880817466 0.0
0.2 4.4190602782 0.0
0.2 4.39204525371 0.0
0.2 4.36751203886 0.0
0.2 4.34523264049 0.0
0.212131543907 4.30926329506 0.0
0.224675715302 4.29385348652 0.0
0.23762369102 4.27878141198 0.0
0.250966423879 4.26405760374 0.0
0.264694484585 4.24969246611 0.0
0.278798324214 4.23569599189 0.0
0.293267939266 4.22207810803 0.0
0.308093289028 4.20884826442 0.0
0.323263842145 4.19601585877 0.0
0.338769084145 4.18358978512 0.0
0.354597997314 4.17157887342 0.0
0.37073960121 4.15999145532 0.0
0.387182441982 4.14883575334 0.0
0.403915091795 4.13811952025 0.0
0.420925712897 4.12785033813 0.0
0.438202430937 4.11803537461 0.0
0.455733079095 4.10868154223 0.0
0.473505374364 4.09979539439 0.0
0.491506842655 4.09138316882 0.0
0.509724826085 4.0834507802 0.0
0.528146580414 4.07600377808 0.0
0.546759103951 4.06904741762 0.0
0.56554943677 4.06258654322 0.0
0.584504260001 4.05662573401 0.0
0.60361041518 4.0511691282 0.0
0.622854334779 4.04622060039 0.0
0.642222678753 4.04178358113 0.0
0.661701681839 4.03786122392 0.0
0.681277836375 4.03445624851 0.0
0.700937245817 4.03157107217 0.0
0.720666255912 4.02920769845 0.0
0.740450894784 4.02736780161 0.0
0.76027736978 4.02605266363 0.0
0.780131702711 4.02526321235 0.0
0.799999999998 4.025 0.0
0.819868297285 4.02526321235 0.0
0.839722630216 4.02605266363 0.0
0.859549105212 4.02736780161 0.0
0.879333744085 4.02920769845 0.0
0.89906275418 4.03157107217 0.0
0.918722163621 4.03445624851 0.0
0.938298318157 4.03786122392 0.0
0.957777321244 4.04178358113 0.0
0.977145665218 4.04622060039 0.0
0.996389584817 4.0511691282 0.0
1.01549574 4.05662573401 0.0
1.03445056323 4.06258654322 0.0
1.05324089605 4.06904741762 0.0
1.07185341958 4.07600377808 0.0
1.09027517391 4.0834507802 0.0
1.10849315734 4.09138316882 0.0
1.12649462563 4.09979539439 0.0
1.1442669209 4.10868154222 0.0
1.16179756906 4.1180353746 0.0
1.1790742871 4.12785033813 0.0
1.1960849082 4.13811952024 0.0
1.21281755802 4.14883575334 0.0
1.22926039879 4.15999145532 0.0
1.24540200269 4.17157887342 0.0
1.26123091585 4.18358978512 0.0
1.27673615785 4.19601585877 0.0
1.29190671097 4.20884826442 0.0
1.30673206073 4.22207810803 0.0
1.32120167579 4.23569599189 0.0
1.33530551541 4.24969246611 0.0
1.34903357612 4.26405760374 0.0
1.36237630898 4.27878141198 0.0
1.3753242847 4.29385348652 0.0
1.38786845609 4.30926329506 0.0
1.05632730172 4.46025283906 0.0
0.549964048968 4.4630053958 0.0
0.806135520676 4.31186690218 0.0
0.603895783049 4.26079310371 0.0
1.22984770884 4.38318704125 0.0
0.3703382852 4.38423552752 0.0
0.995322815839 4.25565031136 0.0
0.728315816804 4.1765935937 0.0
0.872128173905 4.17288724072 0.0
1.14059401893 4.27298468684 0.0
0.461553191009 4.27181671009 0.0
0.784706775856 4.56821390922 0.0
0.398287125272 4.57945970538 0.0
1.20625306554 4.58334743514 0.0
0.624100842742 4.1589824436 0.0
0.5257453845 4.18811776279 0.0
0.978502430793 4.15488737058 0.0
1.07419209812 4.18825154482 0.0
0.364313698077 4.28677035763 0.0
1.23509538257 4.28681716733 0.0
0.68124123937 4.39284548972 0.0
1.31679378691 4.35012066749 0.0
0.283206213094 4.35012066749 0.0
0.791498533126 4.11467141721 0.0
0.931481076052 4.3801344917 0.0
0.966719065571 4.62778042839 0.0
0.684451667517 4.11068036752 0.0
0.618335406951 4.62686910993 0.0
0.450982331762 4.19686171732 0.0
0.915674266355 4.10995633851 0.0
1.14900051594 4.19689012964 0.0
1.30193709687 4.4481448133 0.0
0.298574667609 4.44816296922 0.0
1.05734787542 4.34990107617 0.0
0.539273225177 4.35252599628 0.0
0.709896798149 4.27721026287 0.0
0.895708916005 4.26924194389 0.0
0.813273511364 4.43835766235 0.0
0.559289631452 4.13230879113 0.0
1.04001407307 4.13281539633 0.0
0.801161810585 4.23146244955 0.0
0.665113819616 4.52056650186 0.0
0.852577362173 4.09111846388 0.0
0.390256727869 4.2242806298 0.0
1.20974450479 4.22428104599 0.0
0.921542541183 4.52778058719 0.0
1.14030889032 4.36437344809 0.0
1.15600477272 4.46808538305 0.0
0.435243219029 4.4750581257 0.0
0.462045157798 4.36654654286 0.0
0.735806812738 4.08472269746 0.0
1.30082934537 4.29793772796 0.0
0.299170654625 4.29793772796 0.0
0.533651712118 4.26265983853 0.0
0.666130919144 4.21652131559 0.0
1.0676097303 4.26179469382 0.0
1.08054433577 4.58530946155 0.0
0.506773767255 4.56568295079 0.0
0.626745312844 4.10124420826 0.0
0.933845304214 4.2106954732 0.0
0.293717639664 4.55175000185 0.0
0.312505022079 4.66426411351 0.0
1.3058164124 4.55154930624 0.0
1.29054387065 4.66302765963 0.0
0.973467966326 4.09941619478 0.0
0.487935413164 4.15087084015 0.0
0.461549079751 4.68836834982 0.0
1.11203248746 4.15093503889 0.0
1.14453515393 4.70617370303 0.0
0.840217564202 4.68891146633 0.0
0.585347033288 4.20539048534 0.0
0.619177396637 4.34227576306 0.0
0.331644410315 4.24962190462 0.0
1.26835558968 4.24962190462 0.0
1.01536156978 4.19987473052 0.0
0.809331033562 4.07065709122 0.0
0.982321540791 4.33437358971 0.0
0.725600576914 4.66999651799 0.0
0.812291456186 4.16642942492 0.0
0.335887692543 4.33918235669 0.0
1.26344844681 4.34017131907 0.0
1.23449730504 4.49457441524 0.0
1.34334172095 4.40539551957 0.0
0.256658279045 4.40539551957 0.0
0.741646926828 4.34287908527 0.0
0.674799084703 4.16673768522 0.0
1.18647435526 4.30955189749 0.0
0.360563250283 4.49596479569 0.0
0.873716483853 4.33845499203 0.0
0.418704489949 4.31146264283 0.0
0.492670911224 4.22931614809 0.0
0.403480880356 4.19046776931 0.0
1.19651541215 4.1904686246 0.0
0.728649253738 4.46214546491 0.0
1.00883674467 4.40174664879 0.0
1.11035034557 4.23161841276 0.0
0.261968539765 4.3130079512 0.0
1.33803146023 4.3130079512 0.0
0.74649980488 4.1318354354 0.0
0.927597725248 4.1577597079 0.0
0.892956618256 4.07619338913 0.0
0.659794281787 4.07951387326 0.0
0.587663534405 4.09486537006 0.0
0.942353209926 4.07935300973 0.0
1.01493747319 4.09476013719 0.0
0.613130017774 4.41369803882 0.0
0.449373501074 4.15377191978 0.0
0.514840228377 4.12225850006 0.0
0.497057592 4.41333092106 0.0
1.15061382426 4.15379293084 0.0
1.08514419473 4.12228328152 0.0
0.745617635771 4.23098957592 0.0
0.87523452213 4.59853036549 0.0
0.855262884783 4.2258970831 0.0
1.01126200032 4.53280064162 0.0
1.09391916408 4.40632408872 0.0
1.04436265455 4.71482000827 0.0
0.314320181089 4.38773968607 0.0
1.28649331902 4.38743720145 0.0
0.771211579291 4.06316862024 0.0
0.432259099658 4.24006002157 0.0
0.698583889427 4.07144353526 0.0
1.16802128371 4.238862881 0.0
1.09587629216 4.3086676659 0.0
1.35920470355 4.35666960471 0.0
0.240795296449 4.35666960471 0.0
0.504003580654 4.30815758118 0.0
0.579942709371 4.5342075073 0.0
0.875915224914 4.12815792528 0.0
0.426503136644 4.40717733008 0.0
0.57541416445 4.30365301522 0.0
0.683877978289 4.33161848113 0.0
0.888061695889 4.44633509246 0.0
0.26012287522 4.49859249103 0.0
1.33987712478 4.49859249103 0.0
0.801393572636 4.37060096582 0.0
0.558460082533 4.72496728209 0.0
1.1741923373 4.41132830101 0.0
0.83220012886 4.12779415912 0.0
1.02815069622 4.30053276509 0.0
0.948308583502 4.2880204454 0.0
0.846588933095 4.50834596945 0.0
0.343666800815 4.43485820652 0.0
1.25632767671 4.43480360053 0.0
0.97849585731 4.47031535602 0.0
1.10170977548 4.51507265998 0.0
0.662193131828 4.26809398492 0.0
0.400503668388 4.26881657105 0.0
1.20117145985 4.26130427377 0.0
0.350957892513 4.21796558019 0.0
1.24904210749 4.21796558019 0.0
0.771964652188 4.18905379403 0.0
0.932165148285 4.72736281402 0.0
0.373672364094 4.73321357765 0.0
0.760245937722 4.28409350779 0.0
0.848718469252 4.05767763075 0.0
1.23385612561 4.7358294747 0.0
0.846421485813 4.28065918421 0.0
0.651597058631 4.13043284014 0.0
0.650489852552 4.72138045504 0.0
0.58457834847 4.16375088261 0.0
0.48701309933 4.18859927013 0.0
0.708495738406 4.58856947756 0.0
1.11203398596 4.18878062515 0.0
0.54865558244 4.10250047869 0.0
1.05126102377 4.10234629471 0.0
0.300013757486 4.26259646442 0.0
1.29998624251 4.26259646442 0.0
0.9465032388 4.12718070354 0.0
0.708587583337 4.14146095907 0.0
0.973348904468 4.19537871864 0.0
0.628721855632 4.19538356945 0.0
0.380175010018 4.34021880077 0.0
0.662092932411 4.45899041267 0.0
1.05133526787 4.22221992007 0.0
0.528087045766 4.64327882187 0.0
1.22233124543 4.33521693908 0.0
1.19001193434 4.36273586668 0.0
0.853024099244 4.39544003492 0.0
0.542800296246 4.22324366905 0.0
0.247706318737 4.45239119247 0.0
1.35229368126 4.45239119247 0.0
0.599153768578 4.12953797005 0.0
1.01616570494 4.16227683178 0.0
0.744705786938 4.40569544575 0.0
1.31929001115 4.73702550052 0.0
0.777615355331 4.15113602511 0.0
1.33132411895 4.60631378639 0.0
0.265621610877 4.60975488866 0.0
0.532023338888 4.15374454388 0.0
1.0697792195 4.15241429251 0.0
0.286371037106 4.73010312914 0.0
0.497725885905 4.50153668256 0.0
0.46053455822 4.31587947599 0.0
0.433799237968 4.54629400991 0.0
0.388624781906 4.65094200004 0.0
0.554823673752 4.40451940232 0.0
1.1421595646 4.31818301431 0.0
1.14760043966 4.61655103139 0.0
1.21258698805 4.65320200685 0.0
1.16279096046 4.53292621409 0.0
0.995762647814 4.12508772517 0.0
0.456229040627 4.61456685246 0.0
0.707289391156 4.21520271873 0.0
0.763036833302 4.74285445535 0.0
0.78386198569 4.49787013126 0.0
[...]
POINT_DATA 999
VECTORS Displacement float
-0.00215481704818 -0.15739902256 0
0.00201460580663 -0.15746118297 0
0.0 -0.16 0
0.0 -0.16 0
0.00217156134876 -0.157449146948 0
0.00232391765121 -0.157432225251 0
0.00246112922747 -0.157411401478 0
0.00257770246164 -0.157399738442 0
0.00264828698466 -0.157404229344 0
0.00269193649537 -0.15743224642 0
0.00266661929968 -0.15749011297 0
0.00256642103661 -0.157585029456 0
0.00237985424122 -0.157746882428 0
0.00207022418782 -0.15799418437 0
0.00162249509096 -0.15837473887 0
0.000978774294533 -0.158962653581 0
0.0 -0.16 0
0.0 -0.16 0
0.0 -0.16 0
0.0 -0.16 0
0.0 -0.16 0
0.0 -0.16 0
0.0 -0.16 0
0.0 -0.16 0
0.0 -0.16 0
0.0 -0.16 0
0.0 -0.16 0
0.0 -0.16 0
0.0 -0.16 0
0.0 -0.16 0
0.0 -0.16 0
0.0 -0.16 0
0.0 -0.16 0
-0.00098909778856 -0.158949731332 0
-0.00164701007006 -0.158350159684 0
-0.00212813238214 -0.157958796828 0
-0.00244052745758 -0.157701293596 0
-0.00263706630086 -0.157533560676 0
-0.00274987571363 -0.157434954776 0
-0.00278591006798 -0.157375530034 0
-0.00275166753461 -0.157346005296 0
-0.00268967558937 -0.157340242474 0
-0.0025810881752 -0.157350827726 0
-0.00245128453564 -0.157370851279 0
-0.00230570261988 -0.157387249152 0
-0.00203033880643 -0.157318908873 0
-0.00189333046308 -0.157230133052 0
-0.00174494619772 -0.157126859843 0
-0.00158241517514 -0.157009194458 0
-0.00140683785266 -0.156872256727 0
-0.0012230507171 -0.156712815021 0
-0.00102899744698 -0.156533244128 0
-0.000817347237704 -0.15633129827 0
-0.000591735433392 -0.156091689531 0
-0.000362396140107 -0.155833035528 0
-0.000118891309809 -0.155537939726 0
0.000145987857429 -0.155205729512 0
0.000417734425451 -0.154823750387 0
0.000708226222356 -0.154394379601 0
0.00101403601084 -0.153908729668 0
0.00134722886383 -0.153366137619 0
0.00177529120024 -0.152496428274 0
0.00214688545712 -0.151535587088 0
0.00240813827848 -0.150612031154 0
0.00259576563987 -0.14969962693 0
0.00271766748969 -0.148836010451 0
0.00276848058643 -0.148003168552 0
0.00276904185006 -0.14722994756 0
0.00271292331463 -0.146495129521 0
0.00261352569974 -0.145822021414 0
0.00246187294194 -0.145198623284 0
0.00227947559539 -0.144638725071 0
0.00205762463113 -0.144139042926 0
0.00181565207092 -0.143708605122 0
0.00153847269208 -0.143332897395 0
0.00124444887369 -0.143028218101 0
0.000923588148442 -0.142781863905 0
0.000595976160497 -0.142601548311 0
0.000255188002274 -0.142488605738 0
-0.000119286150015 -0.142418835427 0
-0.000480242770003 -0.142444312666 0
-0.000828455874506 -0.142580234039 0
-0.00115696269103 -0.142760404977 0
-0.00146992501018 -0.143007598389 0
-0.00176431439288 -0.143317076739 0
-0.002041155749 -0.143691947638 0
-0.00229209912307 -0.144133500638 0
-0.00250273660517 -0.144623077009 0
-0.00268352926808 -0.145178488658 0
-0.00283380386725 -0.14580076839 0
-0.00293368304251 -0.146470184572 0
-0.0029902848627 -0.147200879927 0
-0.00299032848242 -0.147975819503 0
-0.00293737795778 -0.148807718676 0
-0.00281690581823 -0.149663804523 0
-0.00262760784547 -0.150577060779 0
-0.00236411004388 -0.151501395649 0
-0.00199302577493 -0.152455830305 0
-0.00159358930183 -0.153283611075 0
-0.00124317367415 -0.15387781898 0
-0.000927643291805 -0.154382644365 0
-0.000628595726647 -0.154823986405 0
-0.000349472999362 -0.155215154125 0
-7.77297493599e-05 -0.155554679054 0
0.000171913198983 -0.155855999213 0
0.000407061418978 -0.156120075724 0
0.000638306061284 -0.156364642824 0
0.00085526749548 -0.156570889709 0
0.00105436195309 -0.156754460656 0
0.00124308838939 -0.156917662175 0
0.00142348236636 -0.157058107667 0
0.0015907311542 -0.15717915236 0
0.00174377755207 -0.157285725089 0
0.00188543454826 -0.15737775595 0
0.00182609293379 -0.154716420294 0
-0.00188926882727 -0.154699764185 0
-3.69760691916e-05 -0.149565506276 0
-0.00110817129557 -0.150132989516 0
0.00233340853458 -0.155951827633 0
-0.00245652939304 -0.155938726983 0
0.000896375947638 -0.149991473703 0
-0.000121847566883 -0.14635654116 0
-9.80726226538e-05 -0.146261632298 0
0.00151836145056 -0.153523370157 0
-0.00166739350079 -0.153469671972 0
-0.000141584236109 -0.155504296801 0
-0.00213542101802 -0.157444973349 0
0.00206267170329 -0.157520127623 0
8.46143410582e-05 -0.147490327346 0
-0.000490223961928 -0.150668955102 0
-0.00035669695123 -0.147445505831 0
0.000297107537549 -0.150641652404 0
-0.00184195447847 -0.155530698447 0
0.00168906269266 -0.155535308185 0
-0.0010318676609 -0.152058851726 0
0.00221119074869 -0.156785767642 0
-0.00234299066273 -0.156747137188 0
-5.82964482005e-05 -0.144495040017 0
0.000986489728386 -0.151873801259 0
0.0009211159717 -0.156980939218 0
0.000599843317028 -0.145285042002 0
-0.00105778576427 -0.157019188308 0
-0.00069357161704 -0.153128736729 0
-0.000821708817201 -0.145254542611 0
0.000504083642027 -0.153106020318 0
0.00258166294983 -0.15699431368 0
-0.00268272986224 -0.156959295962 0
0.00171403973133 -0.152905116723 0
-0.00187786815008 -0.153011630194 0
-0.000627382779145 -0.14906213036 0
0.000460540738333 -0.148908557355 0
5.50934036663e-05 -0.152666821017 0
0.000709484882103 -0.148643398793 0
-0.000906358830701 -0.148604915241 0
-8.72722514081e-05 -0.14747909762 0
-0.00106391113204 -0.1548635413 0
-0.000553324724102 -0.144108066612 0
-0.00109252866453 -0.154838044272 0
0.000917351222049 -0.154842300612 0
0.000871530093991 -0.154938671306 0
0.00208459316328 -0.154492789345 0
0.00225182711867 -0.155889150147 0
-0.00237675157065 -0.156046221302 0
-0.0022137740337 -0.154476341453 0
0.000483779229974 -0.144066737189 0
0.00178718846871 -0.15652486786 0
-0.00193538936098 -0.156489912304 0
-0.00141360693873 -0.151654222564 0
-0.000511562115377 -0.148076039636 0
0.00123797116477 -0.151651434427 0
0.00162033102789 -0.156840318862 0
-0.00182245319965 -0.156634117733 0
0.00113075849535 -0.146181301826 0
0.000276462942904 -0.147922734389 0
-0.00251683910667 -0.157580604633 0
-0.00174452556131 -0.158475500247 0
0.00244753432804 -0.157608221752 0
0.0017266393727 -0.158481633946 0
-0.00138083302381 -0.146132388682 0
0.000275292442298 -0.151443708787 0
-0.00124353971134 -0.158447388602 0
-0.000487675584543 -0.151410961849 0
0.00109528372663 -0.158683570887 0
0.000165890123815 -0.157814672204 0
-0.000632228845865 -0.149369845001 0
-0.00140293996225 -0.151609910535 0
-0.00140867266071 -0.155980308574 0
0.00124426049658 -0.156005693716 0
0.000367162653106 -0.1492541746 0
-0.000217498921588 -0.143437403498 0
0.00123907337561 -0.15145914626 0
-0.000392042125521 -0.157512907853 0
-0.000108546306135 -0.145803287113 0
-0.00226694770482 -0.156138557671 0
0.00213746745877 -0.156158501328 0
0.00244541232879 -0.156843750326 0
0.00250882222662 -0.157111141466 0
-0.00262408953816 -0.157067045005 0
-0.000524937658909 -0.15048767803 0
-3.94392075264e-05 -0.146746300456 0
0.00187732948213 -0.154782569243 0
-0.00254801194412 -0.156869731499 0
0.000488765884173 -0.150457281397 0
-0.00203320803571 -0.154699554169 0
-0.00116905497141 -0.152215947227 0
-0.000526280344067 -0.154446176294 0
0.00033730549721 -0.154439168396 0
-0.000637738786179 -0.153347153887 0
0.00154573282198 -0.153144742728 0
0.00102072278217 -0.15230920138 0
-0.00206515249868 -0.156902252538 0
0.00192146685531 -0.156947264554 0
0.000103128666264 -0.145102292147 0
-0.000259972475963 -0.146553366115 0
-0.00107235717823 -0.14417192141 0
0.00128504852454 -0.145016583377 0
0.00156271205704 -0.147075635999 0
-0.00152375867076 -0.145044299572 0
-0.0018002038042 -0.147129709285 0
-0.00153105753396 -0.153139031241 0
0.000219799456322 -0.152953319974 0
0.00110438988461 -0.15001614325 0
-0.00217175406165 -0.154561890212 0
-0.000434215273617 -0.15291298873 0
-0.00131943464895 -0.149986915463 0
-0.000305383394503 -0.147627354786 0
0.000458871187846 -0.156181352956 0
0.000110160279331 -0.147495925411 0
0.00143680148913 -0.15556215299 0
0.00200553186958 -0.154338141712 0
0.000813641808478 -0.158566296324 0
-0.0025244225283 -0.156567407238 0
0.00240381161829 -0.156604009569 0
0.000232583579016 -0.143335766074 0
-0.00133803413946 -0.15391826051 0
0.00100818469358 -0.144196365042 0
0.0011490026908 -0.153908156274 0
0.00168409144976 -0.152976181784 0
0.00225936353734 -0.157154035777 0
-0.00238965607596 -0.157104113723 0
-0.00183417919374 -0.152983002772 0
-0.00156187834097 -0.155650257039 0
-0.000424513540344 -0.145186768421 0
-0.0024059390693 -0.155422230106 0
-0.00151079081346 -0.151519466038 0
-0.000937281714355 -0.150624121465 0
0.000673487235262 -0.153058959501 0
-0.00271661345634 -0.157352677692 0
0.00262739740936 -0.157392700495 0
-5.75531060832e-05 -0.151037879528 0
-0.00076604679275 -0.158694913366 0
0.00229458958749 -0.155483348068 0
-0.000243897428798 -0.144873433385 0
0.00135411873002 -0.151511328219 0
0.000844286968192 -0.149962626417 0
0.000324672296565 -0.154283068364 0
-0.00260728730566 -0.156545677468 0
0.00250150991688 -0.156567820649 0
0.00133633317976 -0.154166407313 0
0.00195019193688 -0.155980908348 0
-0.000857878534125 -0.149365274192 0
-0.00166573403438 -0.154785986001 0
0.00141999940739 -0.154790348916 0
-0.000966539083334 -0.155621522981 0
0.000790464744953 -0.155639863385 0
-0.000132591346282 -0.146422393522 0
0.000428245928948 -0.158557503791 0
-0.000987563540765 -0.159108457476 0
-0.000332600091377 -0.148929321899 0
-0.000737919547155 -0.143317054219 0
0.00094709661256 -0.159147204819 0
0.000200261025532 -0.148864287981 0
0.000472683196352 -0.146291578632 0
-0.000531636758949 -0.158489988337 0
1.08941787135e-05 -0.148535225841 0
-0.000547593726949 -0.151909087483 0
-0.000637165574643 -0.156032261834 0
0.000355088523185 -0.151852268162 0
0.00160705801539 -0.14846510093 0
-0.00182716655198 -0.148433895403 0
-0.00156190024051 -0.156449374951 0
0.00140223382912 -0.156484461445 0
-0.000727648643635 -0.14617259149 0
0.000159799705082 -0.145690754027 0
0.000215588105641 -0.148241771854 0
-0.000403318892396 -0.148216689093 0
-0.0022467554368 -0.155532576756 0
-0.00115894549355 -0.153633755769 0
0.000760632573288 -0.150574005363 0
-0.0013576719277 -0.157628780232 0
0.0020828190629 -0.155553820685 0
0.00218939066704 -0.155253582035 0
0.000375185189602 -0.151739441304 0
-0.000976281358102 -0.150770736208 0
-0.00273850426697 -0.157226165441 0
0.00263679313531 -0.157270729156 0
0.000665492867406 -0.147452199422 0
-0.000241054483633 -0.148500247675 0
-0.000523446640562 -0.151991845209 0
0.00103328158159 -0.159135939047 0
-5.97507269945e-05 -0.145432435756 0
0.00222886722904 -0.157988642273 0
-0.00226978020539 -0.157982851869 0
0.000214386976004 -0.149901132899 0
-0.000453948852016 -0.149913987213 0
-0.00111260830234 -0.159069986593 0
-0.00207530508519 -0.155792903373 0
-0.00199443212241 -0.153942291009 0
-0.00218322768033 -0.156875052417 0
-0.00169471058024 -0.158235419509 0
-0.00188396895436 -0.153661344723 0
0.00186832855078 -0.154015722978 0
0.00171163717427 -0.157615672552 0
0.00163953654184 -0.158270699049 0
0.00214414025175 -0.156701652538 0
-0.000952609076094 -0.147203161318 0
-0.0017615222353 -0.157567710543 0
-0.000373788079216 -0.147532864233 0
-0.000123747380044 -0.15873292446 0
-0.000175319099077 -0.154018771077 0
0.000853191162301 -0.150745378891 0
6.28988743625e-05 -0.1539425153 0
0.000156370796065 -0.147403181176 0
-0.000266032894808 -0.153919987728 0
0.00254970901735 -0.157185761927 0
0.000715957362359 -0.143545603129 0
-0.00180478921346 -0.156076249611 0
0.00165199987289 -0.156102659169 0
-0.0005798819028 -0.155163948901 0
0.000393745962895 -0.155172604677 0
-0.00152000820726 -0.154398937441 0
-0.00234468051393 -0.155275594731 0
0.000164630679893 -0.144074764138 0
-0.000684672049967 -0.154973872836 0
-0.00146503077413 -0.155414964394 0
0.00130146907395 -0.155427673539 0
-0.00263367258337 -0.157128239145 0
0.00241544011773 -0.156247152654 0
0.000625527316294 -0.14906051329 0
-0.00179704764825 -0.156786746645 0
0.00164441700541 -0.156829437992 0
0.00119921108485 -0.157940539757 0
-0.00250687089528 -0.156222758551 0
-0.00221203382309 -0.157133804805 0
0.00207399666053 -0.157185722845 0
0.00169532855759 -0.145846627941 0
-2.31626179969e-05 -0.146692566957 0
0.0021081601121 -0.157910384323 0
-0.00217158057128 -0.157890044733 0
-0.00153222599594 -0.152553559826 0
0.00045803829455 -0.144826590694 0
-7.13112098993e-05 -0.148291388703 0
-0.000273607189791 -0.144137286147 0
0.00191985975264 -0.153707897455 0
0.00137689068214 -0.152579078185 0
-0.00118810572301 -0.150540092934 0
-0.00150483861705 -0.144211770672 0
-0.00187578364379 -0.145857217408 0
0.00208286034231 -0.155363829516 0
-0.00222934870203 -0.156495553998 0
0.00209278114842 -0.156527939547 0
0.000953850828517 -0.155898666574 0
-0.00206224935264 -0.153733187539 0
-0.00117506168804 -0.150547296828 0
-2.82058975539e-06 -0.149460925357 0
-0.00112008135795 -0.155884362003 0
-0.000127974286749 -0.157036682775 0
0.000871577451694 -0.151656495276 0
-0.00109121490607 -0.151621232255 0
-0.00123015493565 -0.153110462892 0
0.000995213840646 -0.153082759856 0
-0.00262626187921 -0.157563107399 0
0.00255191093786 -0.157600836913 0
-0.000848814672204 -0.149278669882 0
0.00103064654929 -0.150662994349 0
-0.000321054280269 -0.149695682712 0
0.00127856327369 -0.1567795996 0
-0.0010461721797 -0.143564017731 0
0.00107004389242 -0.153152409507 0
0.00241600919363 -0.157238747822 0
-0.00253833355636 -0.157186894751 0
-0.000820246556766 -0.153955304903 0
-0.000706668851566 -0.144599309098 0
0.000635678596675 -0.153941886735 0
-0.000604578847183 -0.14843186437 0
0.000522108514525 -0.157404239355 0
0.000630319313814 -0.159203750783 0
0.00179019218736 -0.153652045812 0
-0.00168929031213 -0.152579274638 0
0.00241556520618 -0.156860955159 0
-0.00253617266229 -0.156823758301 0
0.00232988957011 -0.15737702565 0
-0.0024120399934 -0.157333477649 0
-0.000432943494574 -0.145770362902 0
0.00164862147107 -0.154275676129 0
0.0014556511643 -0.144300745395 0
-3.18704310238e-05 -0.142963326973 0
-0.000161413837648 -0.145679393343 0
-0.00231962957899 -0.155345213821 0
-0.00179233878401 -0.154388454676 0
-0.00107373422288 -0.15602260031 0
0.000900751188008 -0.156049163917 0
0.000193654456386 -0.150568405892 0
0.000372894172532 -0.148211452117 0
-0.000471183144701 -0.143103317217 0
0.00172614634612 -0.158510846826 0
-0.00209523109738 -0.155922991814 0
0.00194127211663 -0.155946341462 0
0.00144944643312 -0.152209301472 0
-0.00190354968453 -0.158357304698 0
-0.000608376825293 -0.159251663427 0
0.00216994714562 -0.154870753864 0
-0.0014630277006 -0.15689331295 0
-0.00011175658212 -0.14736275649 0
0.00127695479543 -0.152156429244 0
0.00148889111869 -0.152126345916 0
0.000535739697403 -0.149123270408 0
0.00111606658709 -0.150697870712 0
-0.00131648583611 -0.152180538171 0
-0.00238330185338 -0.156696280272 0
0.000903199243624 -0.145694141787 0
0.000594009174636 -0.146911384883 0
-0.00238702616078 -0.156477126624 0
0.00225717755256 -0.156517676074 0
-0.00128118603503 -0.156316165303 0
0.00111371326097 -0.156348793711 0
-5.47898508591e-05 -0.146705627285 0
0.0017725337357 -0.15514307039 0
0.00173803039349 -0.155563966648 0
-7.62755337435e-05 -0.147366391579 0
-0.00166354087326 -0.152179957271 0
-0.000538408053179 -0.149513874252 0
-0.0020710113385 -0.155273088027 0
-0.00224620769312 -0.156953165718 0
0.00210962502944 -0.156998828341 0
0.00017980025514 -0.158871902852 0
-9.85705362108e-05 -0.150824230924 0
-0.000154892328083 -0.152259026583 0
-0.00228347638044 -0.154855206965 0
0.0004295700618 -0.149483489326 0
-0.00115275149315 -0.14566571033 0
-0.00212230812972 -0.155078827604 0
0.000751987890564 -0.151260499816 0
0.000646582041994 -0.159352679691 0
0.00202879859629 -0.147695366234 0
-4.5371178083e-05 -0.152230836462 0
-0.000663307477563 -0.157275521889 0
-3.45463898886e-05 -0.145680305755 0
-3.7117478168e-05 -0.150892389408 0
-0.000229605389965 -0.148110593613 0
0.00184524543179 -0.149201041072 0
-0.00228544886158 -0.147673298474 0
-0.000905922742657 -0.151286839644 0
-0.00206389735289 -0.149170907177 0
-0.00011269111391 -0.145117328657 0
6.91728080873e-05 -0.148059747964 0
1.70516290666e-05 -0.143700229388 0
0.00258319966332 -0.157267314733 0
-0.00269320084091 -0.157218026954 0
0.00206573628843 -0.146290094873 0
0.00184992535888 -0.145178587738 0
-0.00022225636828 -0.15913697619 0
-0.0020551626493 -0.145157400589 0
-0.00227883789232 -0.146300214506 0
0.00149888099232 -0.15092918109 0
0.000910426100753 -0.152555987972 0
-0.000197352514398 -0.14687146767 0
-0.00171539456646 -0.150896293065 0
-0.00114063548995 -0.152509145454 0
0.00234745325736 -0.156474916061 0
0.00107354372532 -0.157601457219 0
-0.000232771009674 -0.150340703033 0
0.000583374864019 -0.143102357844 0
-0.00113421234675 -0.144674969677 0
0.00109010503539 -0.143543082735 0
0.000281686751894 -0.145982029586 0
0.00220922678369 -0.15589567795 0
0.00240913820354 -0.157058651405 0
-0.00253140025955 -0.15701409308 0
-0.00183837308197 -0.155514763432 0
0.00251763245015 -0.156844324911 0
-0.00262948011061 -0.156811243484 0
0.000236019893209 -0.155377850094 0
-0.000909563323334 -0.149718766329 0
0.000387745764389 -0.159126525064 0
-0.000467134661982 -0.143717496659 0
0.000623350731481 -0.151523940029 0
-9.54100373874e-05 -0.154763157561 0
-0.000102311124976 -0.154762101903 0
-0.00243833118428 -0.156226235801 0
0.000689867470075 -0.149838944619 0
-0.00113946198898 -0.147797661192 0
-0.000231909179183 -0.148292100889 0
0.00187766521714 -0.1569710655 0
-0.000214171500025 -0.146871649995 0
-0.000866340982357 -0.149786512137 0
0.00096607527667 -0.144793953515 0
-8.54570972597e-05 -0.146544483937 0
-0.00250617964926 -0.155968545783 0
-0.000827167425265 -0.15256561422 0
-0.000380290935441 -0.144809465801 0
-0.000317724702708 -0.152877311483 0
-0.000830982708984 -0.151159783622 0
0.00102453518346 -0.149127547828 0
-0.000379410564199 -0.153781905293 0
0.000184879807716 -0.153761643775 0
-0.00123583640407 -0.14910008272 0
0.00019082804859 -0.149707925078 0
0.000248358501384 -0.144490520334 0
0.00118902619413 -0.147995300669 0
0.00255016365248 -0.156888754609 0
-0.00264528738774 -0.15684596715 0
-0.000599118739678 -0.159402491147 0
-6.02710187937e-06 -0.148289617237 0
0.00239100584056 -0.155967055404 0
6.72244103911e-05 -0.144598434147 0
-0.00142903287326 -0.143741282996 0
-0.00218196700113 -0.156732302814 0
0.00204261049446 -0.156771862422 0
-0.00193571227327 -0.157052492483 0
0.0017875448856 -0.157102373968 0
-0.000757744647766 -0.144098668036 0
-0.00221689325827 -0.154815670603 0
0.00105972626392 -0.146891155427 0
0.0022826948264 -0.157121671797 0
0.000749565216338 -0.150015853776 0
-0.000911681865365 -0.146520785199 0
0.00231263452697 -0.156252118415 0
-0.00230392596689 -0.157230289973 0
0.00216977401289 -0.15728558246 0
0.000547007241465 -0.155086399614 0
0.00157091490109 -0.15401584718 0
0.000465071493654 -0.150478957276 0
-0.0020362171473 -0.156239400057 0
0.0018913078019 -0.156267692566 0
-0.00138072559404 -0.154529577791 0
-0.000175162742396 -0.147145766297 0
0.00118193206296 -0.154549816331 0
0.000625392428561 -0.149148921289 0
0.000432106451005 -0.143608645971 0
-0.00203586247099 -0.153801465188 0
-0.000667931433069 -0.150475557691 0
-0.000858510341562 -0.154472150949 0
0.000676538323551 -0.154467212213 0
0.00122543686334 -0.15507453109 0
-0.00142725406351 -0.152901476313 0
-0.000640379830723 -0.15947621128 0
-0.00154596951042 -0.15668831696 0
0.00138591608253 -0.156729064451 0
0.000632672709579 -0.144357479713 0
0.00044761070241 -0.153609062201 0
-0.000660423085073 -0.153571266089 0
-0.000425912125922 -0.148480089572 0
-0.000273505818804 -0.147371956534 0
-0.00048875002506 -0.15900281131 0
-0.0008941284794 -0.152595335959 0
-0.000901325746578 -0.154030217849 0
0.00204705574221 -0.154668095907 0
0.000354612560239 -0.153339069969 0
0.000708628938502 -0.152618613409 0
0.00026214320158 -0.148382803695 0
0.00258421237442 -0.157100719425 0
-0.00269118727868 -0.157061317017 0
-0.00126071014725 -0.151715623555 0
-0.00164286741529 -0.155766753177 0
0.00148287691913 -0.155780659007 0
0.00164688920259 -0.153252321014 0
-0.00126908784105 -0.155670400129 0
0.00108878618957 -0.155680393963 0
-0.00275739888645 -0.157322396705 0
0.0026628148714 -0.157368211152 0