# vtk DataFile Version 2.0
Generated with Solid Solver
ASCII
DATASET UNSTRUCTURED_GRID
POINTS 999 float 
0.2 4.325 0.0
1.4 4.325 0.0
1.4 4.825 0.0
0.2 4.825 0.0
1.4 4.34523264049 0.0
1.4 4.36751203886 0.0
1.4 4.39204525371 0.0
1.4 4.4190602782 0.0
1.4 4.44880817466 0.0
1.4 4.48156541084 0.0
1.4 4.51763640748 0.0
1.4 4.5573564007 0.0
1.4 4.60109451608 0.0
1.4 4.64925723872 0.0
1.4 4.70229217343 0.0
1.4 4.76069218095 0.0
1.33333333333 4.825 0.0
1.26666666667 4.825 0.0
1.2 4.825 0.0
1.13333333333 4.825 0.0
1.06666666667 4.825 0.0
1.0 4.825 0.0
0.933333333334 4.825 0.0
0.866666666668 4.825 0.0
0.800000000001 4.825 0.0
0.733333333334 4.825 0.0
0.666666666668 4.825 0.0
0.600000000001 4.825 0.0
0.533333333334 4.825 0.0
0.466666666667 4.825 0.0
0.4 4.825 0.0
0.333333333334 4.825 0.0
0.266666666667 4.825 0.0
0.2 4.76069218095 0.0
0.2 4.70229217343 0.0
0.2 4.64925723872 0.0
0.2 4.60109451608 0.0
0.2 4.5573564007 0.0
0.2 4.51763640748 0.0
0.2 4.48156541084 0.0
0.2 4.44880817466 0.0
0.2 4.4190602782 0.0
0.2 4.39204525371 0.0
0.2 4.36751203886 0.0
0.2 4.34523264049 0.0
0.212131543907 4.30926329506 0.0
0.224675715302 4.29385348652 0.0
0.23762369102 4.27878141198 0.0
0.250966423879 4.26405760374 0.0
0.264694484585 4.24969246611 0.0
0.278798324214 4.23569599189 0.0
0.293267939266 4.22207810803 0.0
0.308093289028 4.20884826442 0.0
0.323263842145 4.19601585877 0.0
0.338769084145 4.18358978512 0.0
0.354597997314 4.17157887342 0.0
0.37073960121 4.15999145532 0.0
0.387182441982 4.14883575334 0.0
0.403915091795 4.13811952025 0.0
0.420925712897 4.12785033813 0.0
0.438202430937 4.11803537461 0.0
0.455733079095 4.10868154223 0.0
0.473505374364 4.09979539439 0.0
0.491506842655 4.09138316882 0.0
0.509724826085 4.0834507802 0.0
0.528146580414 4.07600377808 0.0
0.546759103951 4.06904741762 0.0
0.56554943677 4.06258654322 0.0
0.584504260001 4.05662573401 0.0
0.60361041518 4.0511691282 0.0
0.622854334779 4.04622060039 0.0
0.642222678753 4.04178358113 0.0
0.661701681839 4.03786122392 0.0
0.681277836375 4.03445624851 0.0
0.700937245817 4.03157107217 0.0
0.720666255912 4.02920769845 0.0
0.740450894784 4.02736780161 0.0
0.76027736978 4.02605266363 0.0
0.780131702711 4.02526321235 0.0
0.799999999998 4.025 0.0
0.819868297285 4.02526321235 0.0
0.839722630216 4.02605266363 0.0
0.859549105212 4.02736780161 0.0
0.879333744085 4.02920769845 0.0
0.89906275418 4.03157107217 0.0
0.918722163621 4.03445624851 0.0
0.938298318157 4.03786122392 0.0
0.957777321244 4.04178358113 0.0
0.977145665218 4.04622060039 0.0
0.996389584817 4.0511691282 0.0
1.01549574 4.05662573401 0.0
1.03445056323 4.06258654322 0.0
1.05324089605 4.06904741762 0.0
1.07185341958 4.07600377808 0.0
1.09027517391 4.0834507802 0.0
1.10849315734 4.09138316882 0.0
1.12649462563 4.09979539439 0.0
1.1442669209 4.10868154222 0.0
1.16179756906 4.1180353746 0.0
1.1790742871 4.12785033813 0.0
1.1960849082 4.13811952024 0.0
1.21281755802 4.14883575334 0.0
1.22926039879 4.15999145532 0.0
1.24540200269 4.17157887342 0.0
1.26123091585 4.18358978512 0.0
1.27673615785 4.19601585877 0.0
1.29190671097 4.20884826442 0.0
1.30673206073 4.22207810803 0.0
1.32120167579 4.23569599189 0.0
1.33530551541 4.24969246611 0.0
1.34903357612 4.26405760374 0.0
1.36237630898 4.27878141198 0.0
1.3753242847 4.29385348652 0.0
1.38786845609 4.30926329506 0.0
1.05632730172 4.46025283906 0.0
0.549964048968 4.4630053958 0.0
0.806135520676 4.31186690218 0.0
0.603895783049 4.26079310371 0.0
1.22984770884 4.38318704125 0.0
0.3703382852 4.38423552752 0.0
0.995322815839 4.25565031136 0.0
0.728315816804 4.1765935937 0.0
0.872128173905 4.17288724072 0.0
1.14059401893 4.27298468684 0.0
0.461553191009 4.27181671009 0.0
0.784706775856 4.56821390922 0.0
0.398287125272 4.57945970538 0.0
1.20625306554 4.58334743514 0.0
0.624100842742 4.1589824436 0.0
0.5257453845 4.18811776279 0.0
0.978502430793 4.15488737058 0.0
1.07419209812 4.18825154482 0.0
0.364313698077 4.28677035763 0.0
1.23509538257 4.28681716733 0.0
0.68124123937 4.39284548972 0.0
1.31679378691 4.35012066749 0.0
0.283206213094 4.35012066749 0.0
0.791498533126 4.11467141721 0.0
0.931481076052 4.3801344917 0.0
0.966719065571 4.62778042839 0.0
0.684451667517 4.11068036752 0.0
0.618335406951 4.62686910993 0.0
0.450982331762 4.19686171732 0.0
0.915674266355 4.10995633851 0.0
1.14900051594 4.19689012964 0.0
1.30193709687 4.4481448133 0.0
0.298574667609 4.44816296922 0.0
1.05734787542 4.34990107617 0.0
0.539273225177 4.35252599628 0.0
0.709896798149 4.27721026287 0.0
0.895708916005 4.26924194389 0.0
0.813273511364 4.43835766235 0.0
0.559289631452 4.13230879113 0.0
1.04001407307 4.13281539633 0.0
0.801161810585 4.23146244955 0.0
0.665113819616 4.52056650186 0.0
0.852577362173 4.09111846388 0.0
0.390256727869 4.2242806298 0.0
1.20974450479 4.22428104599 0.0
0.921542541183 4.52778058719 0.0
1.14030889032 4.36437344809 0.0
1.15600477272 4.46808538305 0.0
0.435243219029 4.4750581257 0.0
0.462045157798 4.36654654286 0.0
0.735806812738 4.08472269746 0.0
1.30082934537 4.29793772796 0.0
0.299170654625 4.29793772796 0.0
0.533651712118 4.26265983853 0.0
0.666130919144 4.21652131559 0.0
1.0676097303 4.26179469382 0.0
1.08054433577 4.58530946155 0.0
0.506773767255 4.56568295079 0.0
0.626745312844 4.10124420826 0.0
0.933845304214 4.2106954732 0.0
0.293717639664 4.55175000185 0.0
0.312505022079 4.66426411351 0.0
1.3058164124 4.55154930624 0.0
1.29054387065 4.66302765963 0.0
0.973467966326 4.09941619478 0.0
0.487935413164 4.15087084015 0.0
0.461549079751 4.68836834982 0.0
1.11203248746 4.15093503889 0.0
1.14453515393 4.70617370303 0.0
0.840217564202 4.68891146633 0.0
0.585347033288 4.20539048534 0.0
0.619177396637 4.34227576306 0.0
0.331644410315 4.24962190462 0.0
1.26835558968 4.24962190462 0.0
1.01536156978 4.19987473052 0.0
0.809331033562 4.07065709122 0.0
0.982321540791 4.33437358971 0.0
0.725600576914 4.66999651799 0.0
0.812291456186 4.16642942492 0.0
0.335887692543 4.33918235669 0.0
1.26344844681 4.34017131907 0.0
1.23449730504 4.49457441524 0.0
1.34334172095 4.40539551957 0.0
0.256658279045 4.40539551957 0.0
0.741646926828 4.34287908527 0.0
0.674799084703 4.16673768522 0.0
1.18647435526 4.30955189749 0.0
0.360563250283 4.49596479569 0.0
0.873716483853 4.33845499203 0.0
0.418704489949 4.31146264283 0.0
0.492670911224 4.22931614809 0.0
0.403480880356 4.19046776931 0.0
1.19651541215 4.1904686246 0.0
0.728649253738 4.46214546491 0.0
1.00883674467 4.40174664879 0.0
1.11035034557 4.23161841276 0.0
0.261968539765 4.3130079512 0.0
1.33803146023 4.3130079512 0.0
0.74649980488 4.1318354354 0.0
0.927597725248 4.1577597079 0.0
0.892956618256 4.07619338913 0.0
0.659794281787 4.07951387326 0.0
0.587663534405 4.09486537006 0.0
0.942353209926 4.07935300973 0.0
1.01493747319 4.09476013719 0.0
0.613130017774 4.41369803882 0.0
0.449373501074 4.15377191978 0.0
0.514840228377 4.12225850006 0.0
0.497057592 4.41333092106 0.0
1.15061382426 4.15379293084 0.0
1.08514419473 4.12228328152 0.0
0.745617635771 4.23098957592 0.0
0.87523452213 4.59853036549 0.0
0.855262884783 4.2258970831 0.0
1.01126200032 4.53280064162 0.0
1.09391916408 4.40632408872 0.0
1.04436265455 4.71482000827 0.0
0.314320181089 4.38773968607 0.0
1.28649331902 4.38743720145 0.0
0.771211579291 4.06316862024 0.0
0.432259099658 4.24006002157 0.0
0.698583889427 4.07144353526 0.0
1.16802128371 4.238862881 0.0
1.09587629216 4.3086676659 0.0
1.35920470355 4.35666960471 0.0
0.240795296449 4.35666960471 0.0
0.504003580654 4.30815758118 0.0
0.579942709371 4.5342075073 0.0
0.875915224914 4.12815792528 0.0
0.426503136644 4.40717733008 0.0
0.57541416445 4.30365301522 0.0
0.683877978289 4.33161848113 0.0
0.888061695889 4.44633509246 0.0
0.26012287522 4.49859249103 0.0
1.33987712478 4.49859249103 0.0
0.801393572636 4.37060096582 0.0
0.558460082533 4.72496728209 0.0
1.1741923373 4.41132830101 0.0
0.83220012886 4.12779415912 0.0
1.02815069622 4.30053276509 0.0
0.948308583502 4.2880204454 0.0
0.846588933095 4.50834596945 0.0
0.343666800815 4.43485820652 0.0
1.25632767671 4.43480360053 0.0
0.97849585731 4.47031535602 0.0
1.10170977548 4.51507265998 0.0
0.662193131828 4.26809398492 0.0
0.400503668388 4.26881657105 0.0
1.20117145985 4.26130427377 0.0
0.350957892513 4.21796558019 0.0
1.24904210749 4.21796558019 0.0
0.771964652188 4.18905379403 0.0
0.932165148285 4.72736281402 0.0
0.373672364094 4.73321357765 0.0
0.760245937722 4.28409350779 0.0
0.848718469252 4.05767763075 0.0
1.23385612561 4.7358294747 0.0
0.846421485813 4.28065918421 0.0
0.651597058631 4.13043284014 0.0
0.650489852552 4.72138045504 0.0
0.58457834847 4.16375088261 0.0
0.48701309933 4.18859927013 0.0
0.708495738406 4.58856947756 0.0
1.11203398596 4.18878062515 0.0
0.54865558244 4.10250047869 0.0
1.05126102377 4.10234629471 0.0
0.300013757486 4.26259646442 0.0
1.29998624251 4.26259646442 0.0
0.9465032388 4.12718070354 0.0
0.708587583337 4.14146095907 0.0
0.973348904468 4.19537871864 0.0
0.628721855632 4.19538356945 0.0
0.380175010018 4.34021880077 0.0
0.662092932411 4.45899041267 0.0
1.05133526787 4.22221992007 0.0
0.528087045766 4.64327882187 0.0
1.22233124543 4.33521693908 0.0
1.19001193434 4.36273586668 0.0
0.853024099244 4.39544003492 0.0
0.542800296246 4.22324366905 0.0
0.247706318737 4.45239119247 0.0
1.35229368126 4.45239119247 0.0
0.599153768578 4.12953797005 0.0
1.01616570494 4.16227683178 0.0
0.744705786938 4.40569544575 0.0
1.31929001115 4.73702550052 0.0
0.777615355331 4.15113602511 0.0
1.33132411895 4.60631378639 0.0
0.265621610877 4.60975488866 0.0
0.532023338888 4.15374454388 0.0
1.0697792195 4.15241429251 0.0
0.286371037106 4.73010312914 0.0
0.497725885905 4.50153668256 0.0
0.46053455822 4.31587947599 0.0
0.433799237968 4.54629400991 0.0
0.388624781906 4.65094200004 0.0
0.554823673752 4.40451940232 0.0
1.1421595646 4.31818301431 0.0
1.14760043966 4.61655103139 0.0
1.21258698805 4.65320200685 0.0
1.16279096046 4.53292621409 0.0
0.995762647814 4.12508772517 0.0
0.456229040627 4.61456685246 0.0
0.707289391156 4.21520271873 0.0
0.763036833302 4.74285445535 0.0
0.78386198569 4.49787013126 0.0
[...]
POINT_DATA 999
VECTORS Displacement float
0.0371734327483 -0.196161460263 0
0.0426370869695 -0.196272436362 0
0.04 -0.2 0
0.04 -0.2 0
0.0428753739199 -0.196255979041 0
0.0431052558076 -0.196234240579 0
0.0433122737193 -0.196208904598 0
0.0434895319848 -0.196199787541 0
0.043600644099 -0.196216557515 0
0.0436743832766 -0.196269643026 0
0.0436514192826 -0.196367636967 0
0.0435244994475 -0.196520049124 0
0.0432779685229 -0.196768171568 0
0.0428604260028 -0.197136533524 0
0.0422501755057 -0.197691031392 0
0.0413644157682 -0.198532070258 0
0.04 -0.2 0
0.04 -0.2 0
0.04 -0.2 0
0.04 -0.2 0
0.04 -0.2 0
0.04 -0.2 0
0.04 -0.2 0
0.04 -0.2 0
0.04 -0.2 0
0.04 -0.2 0
0.04 -0.2 0
0.04 -0.2 0
0.04 -0.2 0
0.04 -0.2 0
0.04 -0.2 0
0.04 -0.2 0
0.04 -0.2 0
0.0386205929211 -0.198510909584 0
0.0377156691748 -0.197649860819 0
0.037059110175 -0.197077825089 0
0.036638386 -0.196692684461 0
0.0363784646356 -0.196433578137 0
0.0362343209409 -0.196273522741 0
0.0361966567169 -0.196171238737 0
0.0362575551231 -0.196114312509 0
0.0363569917833 -0.196094423625 0
0.0365236334289 -0.196101072876 0
0.0367209920428 -0.196124741334 0
0.0369423539422 -0.196145449898 0
0.037364656447 -0.196036087971 0
0.0375754068596 -0.195895384499 0
0.037803311944 -0.195730985439 0
0.0380529980016 -0.19554340282 0
0.0383232848374 -0.195324569825 0
0.0386061530078 -0.195069253586 0
0.0389059915545 -0.194780305966 0
0.0392351518145 -0.194454089432 0
0.0395902883986 -0.194061489231 0
0.0399525689405 -0.193633937371 0
0.0403411777788 -0.193138313285 0
0.040777114824 -0.192564974985 0
0.0412332082988 -0.191876566316 0
0.0417666058651 -0.190981671136 0
0.042284443698 -0.189874361793 0
0.0427042625534 -0.188775656883 0
0.0430196437324 -0.187712876539 0
0.0432529865739 -0.186655922872 0
0.0434115463236 -0.185659115858 0
0.0435051888124 -0.184692937607 0
0.0435436083153 -0.183781003735 0
0.0435192903487 -0.18289826432 0
0.0434491858383 -0.182072927951 0
0.0433244736736 -0.181271913469 0
0.0431389562205 -0.180604073271 0
0.0429143065096 -0.179979226186 0
0.0426657673192 -0.179420328876 0
0.0423828911229 -0.178923428187 0
0.0420839687271 -0.17848766363 0
0.0417526907057 -0.17810703452 0
0.0414053190109 -0.177798628916 0
0.0410334343625 -0.177548574513 0
0.0406546812154 -0.17736272083 0
0.0402614972891 -0.177239209197 0
0.0398283298488 -0.177132080688 0
0.0394043042676 -0.177156751626 0
0.0389988309579 -0.177327568654 0
0.0386198229002 -0.177525040913 0
0.0382561047111 -0.177780491016 0
0.0379094270202 -0.178095949404 0
0.0375788512684 -0.178474737635 0
0.0372704431848 -0.178919779707 0
0.0369997323533 -0.179418111609 0
0.0367565290922 -0.179984478915 0
0.0365397264614 -0.180617505359 0
0.036370436585 -0.181306528472 0
0.0362396810884 -0.182058158833 0
0.03615766606 -0.182854013526 0
0.0361167081007 -0.183711415353 0
0.0361575875787 -0.18464501422 0
0.0362530412258 -0.185621928605 0
0.0364121434469 -0.186621410529 0
0.0366419180358 -0.187674240729 0
0.0369534729122 -0.188738964593 0
0.0373555991141 -0.189823406319 0
0.0378570132308 -0.190943623701 0
0.0385168334269 -0.192036634627 0
0.0390005465764 -0.192720797547 0
0.0394273566678 -0.193245357969 0
0.0398149799087 -0.19372915912 0
0.0401793840673 -0.194153338118 0
0.0405372409688 -0.194545081635 0
0.0408704040638 -0.194872446838 0
0.0411746299054 -0.195163065669 0
0.0414622038319 -0.195420519588 0
0.0417371680055 -0.195641748346 0
0.0419916965784 -0.195832055207 0
0.0422245927656 -0.195999408063 0
0.0424404598515 -0.19614337378 0
0.0423306727078 -0.192500247845 0
0.0375910450999 -0.192472024124 0
0.039938551591 -0.185941099601 0
0.0388920445659 -0.186249455462 0
0.0430777944589 -0.19401680601 0
0.0367582962829 -0.193968241396 0
0.0408142303313 -0.186076970922 0
0.0399682552011 -0.181875852757 0
0.0397260557988 -0.181763166206 0
0.0417443630671 -0.190343338194 0
0.0380692380205 -0.190235124578 0
0.0398211281242 -0.193787239394 0
0.0371238338924 -0.196289018221 0
0.0427838292344 -0.196409735119 0
0.0404208969841 -0.182899899488 0
0.0398756481237 -0.186371926185 0
0.0392025105226 -0.182841951011 0
0.0398528730418 -0.186352688594 0
0.0376776371695 -0.193234637027 0
0.0421224270769 -0.193286756169 0
0.0387737252661 -0.189073433157 0
0.0429270076986 -0.195239838564 0
0.0368948075139 -0.195155357326 0
0.0399146870702 -0.179684414392 0
0.0411467347301 -0.188811191092 0
0.0412053478186 -0.195771357594 0
0.0408593178055 -0.180443953324 0
0.0386190938179 -0.195811909146 0
0.0395355033051 -0.189344583027 0
0.0388248413137 -0.180416121663 0
0.0402125374818 -0.189345773057 0
0.0434875426774 -0.195588244571 0
0.0363763286078 -0.195515313628 0
0.0420454921907 -0.189882289877 0
0.0377333367495 -0.190002972037 0
0.0393506396739 -0.185212567473 0
0.0404064634326 -0.185011528859 0
0.0400608859897 -0.189971666171 0
0.0413052880862 -0.183908028113 0
0.0384008749155 -0.18387346071 0
0.0398767850753 -0.183323369994 0
0.0386515023193 -0.19285665533 0
0.0392593254311 -0.179178828577 0
0.0388176509229 -0.192034568386 0
0.0409625587183 -0.192107454162 0
0.0411068762309 -0.192976942733 0
0.0426369285922 -0.191949923104 0
0.0429655980109 -0.194043076917 0
0.0368600675585 -0.194246253107 0
0.037195049368 -0.191905557623 0
0.0406064360317 -0.179108511139 0
0.0422886939696 -0.194818945818 0
0.0375132567155 -0.194733412732 0
0.0385116029423 -0.187950022928 0
0.0396044559456 -0.183838123696 0
0.0412534751056 -0.187958295263 0
0.0421418030498 -0.195504387817 0
0.0375966944653 -0.195187471613 0
0.0415763872199 -0.181261559136 0
0.0400737126663 -0.183654315606 0
0.0365690423773 -0.19646589661 0
0.0376115827505 -0.197787019182 0
0.0433377520341 -0.196520503302 0
0.0423662255889 -0.197804109909 0
0.0380779031686 -0.181222342222 0
0.040998693888 -0.186937883911 0
0.0383300317668 -0.197769753106 0
0.0386979812199 -0.186909507012 0
0.0414765112873 -0.198113589152 0
0.0402184480471 -0.196958201168 0
0.0395947254398 -0.185101810191 0
0.0383811149663 -0.188319817673 0
0.0383162910135 -0.193901709124 0
0.0414683016257 -0.193986807242 0
0.0400366159971 -0.184955746045 0
0.0397048922058 -0.178397123216 0
0.041391392922 -0.18812138054 0
0.0394919983239 -0.196535076961 0
0.0398255055959 -0.181269354915 0
0.0370269630063 -0.194218130733 0
0.0428009193571 -0.194282433054 0
0.0432889419602 -0.195393072397 0
0.043378670651 -0.195753437242 0
0.03646442401 -0.195666906185 0
0.0394008201885 -0.187090688729 0
0.0401703325999 -0.182205139971 0
0.0423555629322 -0.192212961733 0
0.0365713797523 -0.195410303863 0
0.0405223767054 -0.187037711691 0
0.0374479518026 -0.1920595074 0
0.0388838424417 -0.188410067704 0
0.039686724264 -0.191288380172 0
0.0400852251278 -0.191349080116 0
0.0392133022577 -0.190850491171 0
0.0418828840505 -0.190377943224 0
0.0409299139096 -0.188559371537 0
0.0373127185355 -0.195384373786 0
0.042493955302 -0.195477642078 0
0.0401845395436 -0.180381202968 0
0.0394245509526 -0.181967685086 0
0.0386200194803 -0.179169686128 0
0.0416360035099 -0.18000617699 0
0.042143506788 -0.182102250785 0
0.0380206862084 -0.180041847339 0
0.0375061890162 -0.182178893334 0
0.0381260641269 -0.190407020684 0
0.0409568541091 -0.188713320179 0
0.0419184660588 -0.185253566258 0
0.037232741399 -0.192151818747 0
0.0387338585669 -0.188684758319 0
0.0377631961419 -0.185217046751 0
0.0397107102701 -0.183469850663 0
0.0405932755812 -0.194702812984 0
0.0400175092642 -0.18330943391 0
0.0418553717952 -0.19375771583 0
0.0425367145261 -0.191866812502 0
0.0410829686591 -0.19796855054 0
0.0366294234637 -0.194899383784 0
0.0432083465653 -0.194980465681 0
0.0402557568846 -0.178269024944 0
0.0385173499308 -0.190699505961 0
0.041239927876 -0.179165777153 0
0.0412403257149 -0.190726462939 0
0.0419674007771 -0.189799188145 0
0.0430050157425 -0.195806996122 0
0.036817867107 -0.195710809359 0
0.037837994958 -0.189779813283 0
0.0379818837935 -0.19386036153 0
0.039345738798 -0.180446353358 0
0.0368611280644 -0.193276716358 0
0.0383111863068 -0.188019399829 0
0.0389482115673 -0.187176983588 0
0.0408167653532 -0.190456083653 0
0.0362995308298 -0.196122817795 0
0.0435792736697 -0.196197819337 0
0.0399216600099 -0.18783426011 0
0.0389834596561 -0.198148315596 0
0.0429984316838 -0.193394956558 0
0.0396331537164 -0.180130845235 0
0.0414750022006 -0.188008822516 0
0.0408412989026 -0.186232276431 0
0.0404058784093 -0.192126729584 0
0.0365065560657 -0.194898240606 0
0.0433521368085 -0.194954897908 0
0.0416754546544 -0.191854410771 0
0.0425578671812 -0.194251260516 0
0.0391353416513 -0.185476262515 0
0.0379737922269 -0.192071500693 0
0.041694852087 -0.192110514647 0
0.0389937502214 -0.193298745346 0
0.040780476451 -0.193388886245 0
0.0398735195418 -0.182015157229 0
0.0405643883116 -0.197978824539 0
0.0386548624153 -0.198709947654 0
0.0396390358536 -0.185115744662 0
0.0390782098157 -0.178222184405 0
0.0412929915445 -0.198769770157 0
0.0401658606507 -0.185030149741 0
0.0408011275888 -0.181542171902 0
0.0393028135234 -0.197878501852 0
0.0404176823538 -0.183985193644 0
0.0398160474324 -0.18776196167 0
0.0391822289705 -0.194488325034 0
0.0399142612357 -0.187708877191 0
0.0423222884156 -0.183556053792 0
0.0373452095983 -0.183515569454 0
0.0380819101082 -0.194655795247 0
0.0417072674747 -0.194744487969 0
0.0388528206475 -0.181417593625 0
0.0403276234026 -0.181016044318 0
0.0399161193149 -0.18388554394 0
0.0398149641391 -0.183852441265 0
0.0370862951812 -0.193317530439 0
0.0385629298541 -0.191171335767 0
0.0405409886618 -0.186505354378 0
0.0382004536907 -0.19662472332 0
0.0426949481878 -0.193378899768 0
0.0428323043119 -0.192990798462 0
0.0404300901787 -0.188732301324 0
0.039169769228 -0.186714031152 0
0.0362823328332 -0.195923446786 0
0.0435790043344 -0.196007431274 0
0.0411445223655 -0.182686591861 0
0.0392551299937 -0.183946828415 0
0.0393731138358 -0.189059670801 0
0.0414255636396 -0.198757734172 0
0.0399441418346 -0.18081432901 0
0.043056648581 -0.197090501188 0
0.0368867823379 -0.197072716678 0
0.0407952200385 -0.185330029114 0
0.0388582887655 -0.185334315411 0
0.0384673568002 -0.198657244178 0
0.0372878585347 -0.193961842995 0
0.0375544382128 -0.191038538195 0
0.0370861524827 -0.195473481949 0
0.0377037219691 -0.197442321891 0
0.0376610531083 -0.190997010957 0
0.0422911145317 -0.191177163627 0
0.0422955581106 -0.196575996439 0
0.0422249350163 -0.197502141454 0
0.0428582028635 -0.195237577662 0
0.0384761751456 -0.18242689935 0
0.0376431733599 -0.196497780326 0
0.039701054456 -0.183279525747 0
0.0398400145548 -0.198231361412 0
0.039779925376 -0.19177541671 0
0.0409298701837 -0.187326588838 0
0.0406386214749 -0.19027713627 0
0.040001069351 -0.183124004766 0
0.0390836846569 -0.190272400608 0
0.0434565576052 -0.195887109895 0
0.040845504144 -0.178470929633 0
0.0377163173874 -0.194077813618 0
0.0420814166945 -0.194158027057 0
0.039594912948 -0.192514790388 0
0.0401763495002 -0.192616746484 0
0.0380811987857 -0.192144312573 0
0.036958679567 -0.193004867684 0
0.0402024520159 -0.179161634992 0
0.0391325559372 -0.193042687788 0
0.0382412165072 -0.193006546108 0
0.0415471737484 -0.193080296844 0
0.0364340967446 -0.195782561313 0
0.0432125670951 -0.194511958105 0
0.0405074685055 -0.18503650572 0
0.0377221596804 -0.195195694246 0
0.0420744364483 -0.195288395447 0
0.0415966677572 -0.197072429591 0
0.0366674165116 -0.194457231468 0
0.0370872414197 -0.195750892306 0
0.0427259690134 -0.19585029914 0
0.0421746940002 -0.180796975686 0
0.0398785126322 -0.182337823192 0
0.0428716023298 -0.196968076894 0
0.0370439161787 -0.196926601204 0
0.0383184433844 -0.189025661255 0
0.0406370371402 -0.179977576272 0
0.0398952173761 -0.184333430181 0
0.0396216396633 -0.17924501604 0
0.0423595909886 -0.190891543559 0
0.0414819621992 -0.189089323555 0
0.0387096646614 -0.186916014383 0
0.0381190485891 -0.179139370194 0
0.0375511338314 -0.180840160377 0
0.0427059668249 -0.193340593907 0
0.0370714814523 -0.194759561458 0
0.0427450220294 -0.194838723671 0
0.041231075234 -0.194280288298 0
0.0374536298403 -0.190898123963 0
0.0388374622055 -0.18665790274 0
0.0394974934064 -0.185007981589 0
0.0385571835699 -0.194245019548 0
0.0398369764605 -0.195885665967 0
0.0418179107695 -0.187010720768 0
0.0378608432904 -0.186978338147 0
0.0387387286351 -0.189554885828 0
0.0409453573049 -0.189526835868 0
0.0364093475998 -0.196447212729 0
0.0434897056598 -0.196516067535 0
0.0392286022187 -0.185212740583 0
0.0409666398184 -0.186808167312 0
0.0400582742573 -0.185291813709 0
0.0416779196306 -0.195460325765 0
0.0386988190845 -0.17848022469 0
0.041305251666 -0.190522601846 0
0.0432414465399 -0.19594311439 0
0.0365917076537 -0.19584592816 0
0.0392783794036 -0.190580865477 0
0.0390278249587 -0.179717861687 0
0.0404902890723 -0.190611598901 0
0.0394373432923 -0.184358368599 0
0.0406826735138 -0.196380617546 0
0.0408466387291 -0.198863810583 0
0.0422158232464 -0.190983270427 0
0.0379806505331 -0.189533781955 0
0.0432330712041 -0.195367056202 0
0.0366035828488 -0.195287282726 0
0.0431545808973 -0.196184445925 0
0.0367365815999 -0.196103959171 0
0.0392745378166 -0.181081558377 0
0.0419900624943 -0.191420120363 0
0.0417534745708 -0.179201428623 0
0.0399279142954 -0.177816375359 0
0.0397042553453 -0.181095545551 0
0.0369815734036 -0.193237190621 0
0.0378180055889 -0.191532787123 0
0.0388298399062 -0.193956489247 0
0.0409460730046 -0.194045799201 0
0.0402006463106 -0.187218789261 0
0.0402452383825 -0.184087283476 0
0.0394053238016 -0.177978350663 0
0.0423799122863 -0.197858752469 0
0.0372888917578 -0.19386920015 0
0.0425048979543 -0.193941289393 0
0.0416918888332 -0.189077078128 0
0.037380078613 -0.197625703399 0
0.0391846640744 -0.198929928243 0
0.0427880672506 -0.192543853265 0
0.0380777039721 -0.195594568358 0
0.0401431955444 -0.182852702491 0
0.0414962052605 -0.189099839638 0
0.0416539819349 -0.188701124889 0
0.040308634811 -0.184939639985 0
0.0411641038119 -0.187061277768 0
0.0384346467672 -0.189157485328 0
0.0368139750912 -0.19518504263 0
0.0412650390125 -0.180804576378 0
0.0410111484938 -0.182146670352 0
0.0368368560796 -0.194745464113 0
0.0429886084939 -0.194835334665 0
0.0385117728563 -0.194435607421 0
0.0412693245127 -0.194524936204 0
0.0397179391805 -0.182235941169 0
0.0422259924541 -0.192709706314 0
0.042254396463 -0.193709403591 0
0.0395918941691 -0.182873815324 0
0.038111336684 -0.188755773546 0
0.0394154423833 -0.185828937836 0
0.0373568049324 -0.192891707161 0
0.037037270772 -0.195470398565 0
0.0427779579086 -0.195563063026 0
0.0402372161262 -0.198423874693 0
0.0404397736937 -0.186391008227 0
0.0404012414999 -0.18800428731 0
0.0370660337984 -0.192493557602 0
0.0404184707253 -0.185782831379 0
0.0383875322007 -0.180779468928 0
0.0372620261977 -0.192933268008 0
0.0405054008418 -0.187222605918 0
0.0408766798624 -0.199070419337 0
0.0427087098023 -0.18267756658 0
0.0393200097233 -0.187989358599 0
0.0391377627929 -0.196193976674 0
0.0400201546647 -0.181091976352 0
0.0393600082022 -0.186490032026 0
0.0397520559411 -0.184097985545 0
0.0426648130418 -0.184286784525 0
0.0369217563904 -0.182656616339 0
0.0392867071805 -0.187222995671 0
0.0370060139734 -0.184237530567 0
0.0398349567383 -0.180439697431 0
0.0400183792649 -0.184034146371 0
0.0400001098476 -0.178719969733 0
0.0434949647247 -0.19599672444 0
0.0363548060972 -0.195904943113 0
0.0426214093844 -0.18118477211 0
0.0422730210103 -0.180069347041 0
0.039709592683 -0.19879023879 0
0.0374236695487 -0.18006736968 0
0.0370708429032 -0.18123426305 0
0.0424827280457 -0.186130937753 0
0.0419812020618 -0.187973253607 0
0.0399352719687 -0.182438076967 0
0.0371909098601 -0.186096235897 0
0.0376876908609 -0.187939545143 0
0.0431324091752 -0.194873442683 0
0.0414185621894 -0.196614663126 0
0.0397257584729 -0.18692705383 0
0.0406621570196 -0.177964197371 0
0.0385032389513 -0.179716577015 0
0.0412753465514 -0.178414592025 0
0.0405267724826 -0.181280669353 0
0.0428951504667 -0.193904366921 0
0.0432281223355 -0.195667182306 0
0.0366055530185 -0.195578564078 0
0.0376193254945 -0.193624340675 0
0.0433848682839 -0.195352784356 0
0.036463996643 -0.195280345296 0
0.0403020916809 -0.193613240601 0
0.0391954599954 -0.185639668324 0
0.0405138651073 -0.198770240706 0
0.0393875707173 -0.178724134486 0
0.040712671861 -0.18841800726 0
0.0403543453399 -0.191779951464 0
0.0394198123493 -0.191888855964 0
0.0367713341013 -0.1943773659 0
0.0406948914229 -0.186161673019 0
0.0381941839043 -0.182993909104 0
0.040072681942 -0.183829948327 0
0.0424997645378 -0.195655088052 0
0.0398255187835 -0.182537104822 0
0.0390766552807 -0.186074057119 0
0.0412490220267 -0.179830043914 0
0.0398667656114 -0.182175418854 0
0.0366855606653 -0.194051773658 0
0.0389994511186 -0.189785914773 0
0.0394407971574 -0.180027658172 0
0.0396100352652 -0.190244515135 0
0.0390391034461 -0.187917803939 0
0.0417295082616 -0.184345624939 0
0.0399589636288 -0.190166114009 0
0.0397880570509 -0.190176278908 0
0.037954679985 -0.184312488472 0
0.0401802818331 -0.186109898445 0
0.0403384066943 -0.179640430743 0
0.0418101610487 -0.183135901924 0
0.0434393078898 -0.195440103685 0
0.0364345658328 -0.195354696846 0
0.0391899591585 -0.199139893928 0
0.0395897959528 -0.183821218105 0
0.0431621535443 -0.194076738201 0
0.0400973251906 -0.179797846412 0
0.0382458067348 -0.178626091735 0
0.0371378860728 -0.195123580645 0
0.0426743029247 -0.195210729841 0
0.0375098071492 -0.195616802913 0
0.0422916510817 -0.19571524446 0
0.0390047743136 -0.17913790091 0
0.0371741359221 -0.192306451127 0
0.041558999012 -0.182013776062 0
0.043074488502 -0.195819220245 0
0.0405558462423 -0.185939545349 0
0.0385920969 -0.181731246608 0
0.043060648521 -0.194445784517 0
0.0369465313803 -0.195903667085 0
0.0428713535337 -0.196006394825 0
0.0406958944541 -0.193204265112 0
0.0419669809488 -0.191589541053 0
0.0411728102816 -0.185868776324 0
0.0373659420916 -0.194349192662 0
0.0424406792047 -0.194427323306 0
0.0384083212506 -0.191613569759 0
0.039819532917 -0.182903247973 0
0.0413358796701 -0.191692803719 0
0.0405559965943 -0.185227646995 0
0.0405109258339 -0.178579351006 0
0.0374656796978 -0.191100987665 0
0.0385286277981 -0.185867374902 0
0.0391884831218 -0.191404043013 0
0.0405875983805 -0.191462977532 0
0.041564516084 -0.193119464042 0
0.0384604284648 -0.18939178669 0
0.0391194762707 -0.199243096277 0
0.0381068021997 -0.195034502706 0
0.0416819406969 -0.19512694643 0
0.0408117359041 -0.179414809078 0
0.0412814560042 -0.189567817364 0
0.0383920859568 -0.189535630299 0
0.0395655803669 -0.1845247603 0
0.0398978803142 -0.182967345627 0
0.0393541660397 -0.198592299283 0
0.0392764393076 -0.188737176756 0
0.0388741845712 -0.191744610691 0
0.0425912099067 -0.192125775447 0
0.0404315422523 -0.190856482569 0
0.0404776964319 -0.188790917375 0
0.0401981194741 -0.184400389479 0
0.0434929236574 -0.195743839212 0
0.0363618005764 -0.195664960915 0
0.0387529202506 -0.187899823346 0
0.0379659543706 -0.193577829974 0
0.0418237140287 -0.193645586787 0
0.0419190767586 -0.190076417848 0
0.0385310251239 -0.19339576385 0
0.0412324557875 -0.193465136882 0
0.0362453529907 -0.196077156691 0
0.0436256275098 -0.196161180858 0
0.0386373002705 -0.187005882097 0
0.0409409636909 -0.19722518439 0
0.0429246367506 -0.193347241593 0
0.040807016635 -0.191864087213 0
0.0413370935727 -0.18948606722 0
0.0399011715071 -0.182563537881 0
0.0395673631814 -0.185696858663 0
0.0376918786231 -0.179384075694 0
0.0419911131619 -0.192723513499 0
0.0432384710428 -0.194572103673 0
0.0366069845592 -0.194516470229 0
0.0376307556561 -0.192264257202 0
0.0378815091957 -0.190047664308 0
0.0402339961501 -0.184335258281 0
0.0385537187337 -0.190193072304 0
0.0395289200543 -0.181383468195 0
0.0415175175306 -0.1899504635 0
0.0409319983625 -0.189517345525 0
0.0396096327397 -0.194741394147 0
0.0410406311981 -0.188032968118 0
0.0417790790529 -0.180571957571 0
0.0417659175827 -0.188987644643 0
0.0428379585922 -0.192756457412 0
0.0402839101831 -0.195713505834 0
0.0381950810878 -0.188567175589 0
0.0395681763106 -0.187996030763 0
0.0389173977142 -0.197365151277 0
0.0382470341709 -0.193144070667 0
0.0384725043304 -0.18768169847 0
0.0395752029759 -0.183974083654 0
0.0386198877913 -0.188139071857 0