# vtk DataFile Version 2.0
Generated with Solid Solver
ASCII
DATASET UNSTRUCTURED_GRID
POINTS 999 float 
0.2 4.325 0.0
1.4 4.325 0.0
1.4 4.825 0.0
0.2 4.825 0.0
1.4 4.34523264049 0.0
1.4 4.36751203886 0.0
1.4 4.39204525371 0.0
1.4 4.4190602782 0.0
1.4 4.44880817466 0.0
1.4 4.48156541084 0.0
1.4 4.51763640748 0.0
1.4 4.5573564007 0.0
1.4 4.60109451608 0.0
1.4 4.64925723872 0.0
1.4 4.70229217343 0.0
1.4 4.76069218095 0.0
1.33333333333 4.825 0.0
1.26666666667 4.825 0.0
1.2 4.825 0.0
1.13333333333 4.825 0.0
1.06666666667 4.825 0.0
1.0 4.825 0.0
0.933333333334 4.825 0.0
0.866666666668 4.825 0.0
0.800000000001 4.825 0.0
0.733333333334 4.825 0.0
0.666666666668 4.825 0.0
0.600000000001 4.825 0.0
0.533333333334 4.825 0.0
0.466666666667 4.825 0.0
0.4 4.825 0.0
0.333333333334 4.825 0.0
0.266666666667 4.825 0.0
0.2 4.76069218095 0.0
0.2 4.70229217343 0.0
0.2 4.64925723872 0.0
0.2 4.60109451608 0.0
0.2 4.5573564007 0.0
0.2 4.51763640748 0.0
0.2 4.48156541084 0.0
0.2 4.44880817466 0.0
0.2 4.4190602782 0.0
0.2 4.39204525371 0.0
0.2 4.36751203886 0.0
0.2 4.34523264049 0.0
0.212131543907 4.30926329506 0.0
0.224675715302 4.29385348652 0.0
0.23762369102 4.27878141198 0.0
0.250966423879 4.26405760374 0.0
0.264694484585 4.24969246611 0.0
0.278798324214 4.23569599189 0.0
0.293267939266 4.22207810803 0.0
0.308093289028 4.20884826442 0.0
0.323263842145 4.19601585877 0.0
0.338769084145 4.18358978512 0.0
0.354597997314 4.17157887342 0.0
0.37073960121 4.15999145532 0.0
0.387182441982 4.14883575334 0.0
0.403915091795 4.13811952025 0.0
0.420925712897 4.12785033813 0.0
0.438202430937 4.11803537461 0.0
0.455733079095 4.10868154223 0.0
0.473505374364 4.09979539439 0.0
0.491506842655 4.09138316882 0.0
0.509724826085 4.0834507802 0.0
0.528146580414 4.07600377808 0.0
0.546759103951 4.06904741762 0.0
0.56554943677 4.06258654322 0.0
0.584504260001 4.05662573401 0.0
0.60361041518 4.0511691282 0.0
0.622854334779 4.04622060039 0.0
0.642222678753 4.04178358113 0.0
0.661701681839 4.03786122392 0.0
0.681277836375 4.03445624851 0.0
0.700937245817 4.03157107217 0.0
0.720666255912 4.02920769845 0.0
0.740450894784 4.02736780161 0.0
0.76027736978 4.02605266363 0.0
0.780131702711 4.02526321235 0.0
0.799999999998 4.025 0.0
0.819868297285 4.02526321235 0.0
0.839722630216 4.02605266363 0.0
0.859549105212 4.02736780161 0.0
0.879333744085 4.02920769845 0.0
0.89906275418 4.03157107217 0.0
0.918722163621 4.03445624851 0.0
0.938298318157 4.03786122392 0.0
0.957777321244 4.04178358113 0.0
0.977145665218 4.04622060039 0.0
0.996389584817 4.0511691282 0.0
1.01549574 4.05662573401 0.0
1.03445056323 4.06258654322 0.0
1.05324089605 4.06904741762 0.0
1.07185341958 4.07600377808 0.0
1.09027517391 4.0834507802 0.0
1.10849315734 4.09138316882 0.0
1.12649462563 4.09979539439 0.0
1.1442669209 4.10868154222 0.0
1.16179756906 4.1180353746 0.0
1.1790742871 4.12785033813 0.0
1.1960849082 4.13811952024 0.0
1.21281755802 4.14883575334 0.0
1.22926039879 4.15999145532 0.0
1.24540200269 4.17157887342 0.0
1.26123091585 4.18358978512 0.0
1.27673615785 4.19601585877 0.0
1.29190671097 4.20884826442 0.0
1.30673206073 4.22207810803 0.0
1.32120167579 4.23569599189 0.0
1.33530551541 4.24969246611 0.0
1.34903357612 4.26405760374 0.0
1.36237630898 4.27878141198 0.0
1.3753242847 4.29385348652 0.0
1.38786845609 4.30926329506 0.0
1.05632730172 4.46025283906 0.0
0.549964048968 4.4630053958 0.0
0.806135520676 4.31186690218 0.0
0.603895783049 4.26079310371 0.0
1.22984770884 4.38318704125 0.0
0.3703382852 4.38423552752 0.0
0.995322815839 4.25565031136 0.0
0.728315816804 4.1765935937 0.0
0.872128173905 4.17288724072 0.0
1.14059401893 4.27298468684 0.0
0.461553191009 4.27181671009 0.0
0.784706775856 4.56821390922 0.0
0.398287125272 4.57945970538 0.0
1.20625306554 4.58334743514 0.0
0.624100842742 4.1589824436 0.0
0.5257453845 4.18811776279 0.0
0.978502430793 4.15488737058 0.0
1.07419209812 4.18825154482 0.0
0.364313698077 4.28677035763 0.0
1.23509538257 4.28681716733 0.0
0.68124123937 4.39284548972 0.0
1.31679378691 4.35012066749 0.0
0.283206213094 4.35012066749 0.0
0.791498533126 4.11467141721 0.0
0.931481076052 4.3801344917 0.0
0.966719065571 4.62778042839 0.0
0.684451667517 4.11068036752 0.0
0.618335406951 4.62686910993 0.0
0.450982331762 4.19686171732 0.0
0.915674266355 4.10995633851 0.0
1.14900051594 4.19689012964 0.0
1.30193709687 4.4481448133 0.0
0.298574667609 4.44816296922 0.0
1.05734787542 4.34990107617 0.0
0.539273225177 4.35252599628 0.0
0.709896798149 4.27721026287 0.0
0.895708916005 4.26924194389 0.0
0.813273511364 4.43835766235 0.0
0.559289631452 4.13230879113 0.0
1.04001407307 4.13281539633 0.0
0.801161810585 4.23146244955 0.0
0.665113819616 4.52056650186 0.0
0.852577362173 4.09111846388 0.0
0.390256727869 4.2242806298 0.0
1.20974450479 4.22428104599 0.0
0.921542541183 4.52778058719 0.0
1.14030889032 4.36437344809 0.0
1.15600477272 4.46808538305 0.0
0.435243219029 4.4750581257 0.0
0.462045157798 4.36654654286 0.0
0.735806812738 4.08472269746 0.0
1.30082934537 4.29793772796 0.0
0.299170654625 4.29793772796 0.0
0.533651712118 4.26265983853 0.0
0.666130919144 4.21652131559 0.0
1.0676097303 4.26179469382 0.0
1.08054433577 4.58530946155 0.0
0.506773767255 4.56568295079 0.0
0.626745312844 4.10124420826 0.0
0.933845304214 4.2106954732 0.0
0.293717639664 4.55175000185 0.0
0.312505022079 4.66426411351 0.0
1.3058164124 4.55154930624 0.0
1.29054387065 4.66302765963 0.0
0.973467966326 4.09941619478 0.0
0.487935413164 4.15087084015 0.0
0.461549079751 4.68836834982 0.0
1.11203248746 4.15093503889 0.0
1.14453515393 4.70617370303 0.0
0.840217564202 4.68891146633 0.0
0.585347033288 4.20539048534 0.0
0.619177396637 4.34227576306 0.0
0.331644410315 4.24962190462 0.0
1.26835558968 4.24962190462 0.0
1.01536156978 4.19987473052 0.0
0.809331033562 4.07065709122 0.0
0.982321540791 4.33437358971 0.0
0.725600576914 4.66999651799 0.0
0.812291456186 4.16642942492 0.0
0.335887692543 4.33918235669 0.0
1.26344844681 4.34017131907 0.0
1.23449730504 4.49457441524 0.0
1.34334172095 4.40539551957 0.0
0.256658279045 4.40539551957 0.0
0.741646926828 4.34287908527 0.0
0.674799084703 4.16673768522 0.0
1.18647435526 4.30955189749 0.0
0.360563250283 4.49596479569 0.0
0.873716483853 4.33845499203 0.0
0.418704489949 4.31146264283 0.0
0.492670911224 4.22931614809 0.0
0.403480880356 4.19046776931 0.0
1.19651541215 4.1904686246 0.0
0.728649253738 4.46214546491 0.0
1.00883674467 4.40174664879 0.0
1.11035034557 4.23161841276 0.0
0.261968539765 4.3130079512 0.0
1.33803146023 4.3130079512 0.0
0.74649980488 4.1318354354 0.0
0.927597725248 4.1577597079 0.0
0.892956618256 4.07619338913 0.0
0.659794281787 4.07951387326 0.0
0.587663534405 4.09486537006 0.0
0.942353209926 4.07935300973 0.0
1.01493747319 4.09476013719 0.0
0.613130017774 4.41369803882 0.0
0.449373501074 4.15377191978 0.0
0.514840228377 4.12225850006 0.0
0.497057592 4.41333092106 0.0
1.15061382426 4.15379293084 0.0
1.08514419473 4.12228328152 0.0
0.745617635771 4.23098957592 0.0
0.87523452213 4.59853036549 0.0
0.855262884783 4.2258970831 0.0
1.01126200032 4.53280064162 0.0
1.09391916408 4.40632408872 0.0
1.04436265455 4.71482000827 0.0
0.314320181089 4.38773968607 0.0
1.28649331902 4.38743720145 0.0
0.771211579291 4.06316862024 0.0
0.432259099658 4.24006002157 0.0
0.698583889427 4.07144353526 0.0
1.16802128371 4.238862881 0.0
1.09587629216 4.3086676659 0.0
1.35920470355 4.35666960471 0.0
0.240795296449 4.35666960471 0.0
0.504003580654 4.30815758118 0.0
0.579942709371 4.5342075073 0.0
0.875915224914 4.12815792528 0.0
0.426503136644 4.40717733008 0.0
0.57541416445 4.30365301522 0.0
0.683877978289 4.33161848113 0.0
0.888061695889 4.44633509246 0.0
0.26012287522 4.49859249103 0.0
1.33987712478 4.49859249103 0.0
0.801393572636 4.37060096582 0.0
0.558460082533 4.72496728209 0.0
1.1741923373 4.41132830101 0.0
0.83220012886 4.12779415912 0.0
1.02815069622 4.30053276509 0.0
0.948308583502 4.2880204454 0.0
0.846588933095 4.50834596945 0.0
0.343666800815 4.43485820652 0.0
1.25632767671 4.43480360053 0.0
0.97849585731 4.47031535602 0.0
1.10170977548 4.51507265998 0.0
0.662193131828 4.26809398492 0.0
0.400503668388 4.26881657105 0.0
1.20117145985 4.26130427377 0.0
0.350957892513 4.21796558019 0.0
1.24904210749 4.21796558019 0.0
0.771964652188 4.18905379403 0.0
0.932165148285 4.72736281402 0.0
0.373672364094 4.73321357765 0.0
0.760245937722 4.28409350779 0.0
0.848718469252 4.05767763075 0.0
1.23385612561 4.7358294747 0.0
0.846421485813 4.28065918421 0.0
0.651597058631 4.13043284014 0.0
0.650489852552 4.72138045504 0.0
0.58457834847 4.16375088261 0.0
0.48701309933 4.18859927013 0.0
0.708495738406 4.58856947756 0.0
1.11203398596 4.18878062515 0.0
0.54865558244 4.10250047869 0.0
1.05126102377 4.10234629471 0.0
0.300013757486 4.26259646442 0.0
1.29998624251 4.26259646442 0.0
0.9465032388 4.12718070354 0.0
0.708587583337 4.14146095907 0.0
0.973348904468 4.19537871864 0.0
0.628721855632 4.19538356945 0.0
0.380175010018 4.34021880077 0.0
0.662092932411 4.45899041267 0.0
1.05133526787 4.22221992007 0.0
0.528087045766 4.64327882187 0.0
1.22233124543 4.33521693908 0.0
1.19001193434 4.36273586668 0.0
0.853024099244 4.39544003492 0.0
0.542800296246 4.22324366905 0.0
0.247706318737 4.45239119247 0.0
1.35229368126 4.45239119247 0.0
0.599153768578 4.12953797005 0.0
1.01616570494 4.16227683178 0.0
0.744705786938 4.40569544575 0.0
1.31929001115 4.73702550052 0.0
0.777615355331 4.15113602511 0.0
1.33132411895 4.60631378639 0.0
0.265621610877 4.60975488866 0.0
0.532023338888 4.15374454388 0.0
1.0697792195 4.15241429251 0.0
0.286371037106 4.73010312914 0.0
0.497725885905 4.50153668256 0.0
0.46053455822 4.31587947599 0.0
0.433799237968 4.54629400991 0.0
0.388624781906 4.65094200004 0.0
0.554823673752 4.40451940232 0.0
1.1421595646 4.31818301431 0.0
1.14760043966 4.61655103139 0.0
1.21258698805 4.65320200685 0.0
1.16279096046 4.53292621409 0.0
0.995762647814 4.12508772517 0.0
0.456229040627 4.61456685246 0.0
0.707289391156 4.21520271873 0.0
0.763036833302 4.74285445535 0.0
0.78386198569 4.49787013126 0.0
[...]
POINT_DATA 999
VECTORS Displacement float
0.397918625673 -0.157422775073 0
0.402095080707 -0.157419150481 0
0.4 -0.16 0
0.4 -0.16 0
0.402249468987 -0.157407205148 0
0.40239885438 -0.157390492852 0
0.402532674058 -0.157370011877 0
0.402645432452 -0.157358908706 0
0.40271166021 -0.157364197951 0
0.402750424326 -0.157393346249 0
0.402719545104 -0.157452750198 0
0.402613002951 -0.157549801089 0
0.40241933606 -0.157714616 0
0.402101674123 -0.157966043959 0
0.401645065114 -0.158352290311 0
0.400991326794 -0.158948829864 0
0.4 -0.16 0
0.4 -0.16 0
0.4 -0.16 0
0.4 -0.16 0
0.4 -0.16 0
0.4 -0.16 0
0.4 -0.16 0
0.4 -0.16 0
0.4 -0.16 0
0.4 -0.16 0
0.4 -0.16 0
0.4 -0.16 0
0.4 -0.16 0
0.4 -0.16 0
0.4 -0.16 0
0.4 -0.16 0
0.4 -0.16 0
0.399017439045 -0.158956854969 0
0.398366012559 -0.15836182801 0
0.39789126299 -0.157973568704 0
0.397585413133 -0.15771840087 0
0.397395247741 -0.157552268454 0
0.397288584756 -0.157454896082 0
0.397258373743 -0.157396393258 0
0.397298216624 -0.157367627339 0
0.397365442169 -0.157362497459 0
0.397479054485 -0.157373636687 0
0.397613607136 -0.157394110717 0
0.397763640172 -0.157410822582 0
0.398046319278 -0.157340404456 0
0.398186588153 -0.157249342663 0
0.398338307134 -0.157143667461 0
0.398504278439 -0.157023458951 0
0.398683411899 -0.156883783458 0
0.398870841248 -0.156721344205 0
0.399068660435 -0.156538519499 0
0.399284319743 -0.156333007456 0
0.399514210375 -0.156089233053 0
0.399747935069 -0.155826039607 0
0.399996133342 -0.155525686753 0
0.400266373291 -0.155187270966 0
0.400543950365 -0.154797435536 0
0.400841303273 -0.154357816008 0
0.401155029563 -0.153855987886 0
0.401502496554 -0.153270957381 0
0.401908516412 -0.152432398793 0
0.402281919937 -0.151467516182 0
0.402542368315 -0.150543185596 0
0.402727211399 -0.149635267505 0
0.402847811082 -0.148774192809 0
0.402897173823 -0.147945252537 0
0.402896878296 -0.147175039866 0
0.402840654046 -0.146440914132 0
0.402740716637 -0.145769146154 0
0.4025885031 -0.145145807211 0
0.402404489437 -0.144592596987 0
0.402182628675 -0.14409555769 0
0.401940893873 -0.14366471999 0
0.401663976747 -0.14328600354 0
0.401369362725 -0.142979019218 0
0.401047050408 -0.1427297059 0
0.400717115752 -0.142547263445 0
0.400373566596 -0.142425097178 0
0.399991962203 -0.142372643694 0
0.399633601854 -0.142443466946 0
0.399290538872 -0.142560473283 0
0.398962333604 -0.142739680673 0
0.398649582141 -0.142985859218 0
0.398354542829 -0.143292582453 0
0.398076928151 -0.14366668118 0
0.397824996452 -0.144108510926 0
0.397614034828 -0.144600116165 0
0.39743290147 -0.14515707881 0
0.39728141916 -0.145778148515 0
0.397180630996 -0.146448548261 0
0.39712474365 -0.147183913194 0
0.397122759275 -0.147955027113 0
0.397174963197 -0.148787840407 0
0.397294799962 -0.149644871952 0
0.397481090796 -0.150554402549 0
0.397742557475 -0.151479306276 0
0.398111218727 -0.152435478046 0
0.398522581018 -0.153284953879 0
0.398867415337 -0.153863096479 0
0.399179995642 -0.154362774618 0
0.399476468621 -0.154801105098 0
0.399753340833 -0.155189993502 0
0.40002299633 -0.155527674795 0
0.400270713273 -0.155827366176 0
0.400503999658 -0.1560899487 0
0.400733411134 -0.156333103876 0
0.40094857501 -0.156538011996 0
0.401145888151 -0.156720286758 0
0.401332828544 -0.156882208986 0
0.401511436227 -0.157021386277 0
0.401676874851 -0.157141149118 0
0.401828077438 -0.157246429905 0
0.401967859671 -0.15733712992 0
0.401886468189 -0.154700772473 0
0.398164692381 -0.154679853037 0
0.40005033728 -0.149538875898 0
0.398989490698 -0.150093031263 0
0.402405386085 -0.155927849898 0
0.397605762276 -0.155930843407 0
0.400989740293 -0.149971267376 0
0.399987846528 -0.146318076133 0
0.400008519762 -0.146235897589 0
0.401607218562 -0.153503525115 0
0.398422627779 -0.153435608789 0
0.399899447337 -0.155490745188 0
0.397894072834 -0.157441401192 0
0.402102080441 -0.157505277238 0
0.400200687799 -0.147444390193 0
0.399625278355 -0.150617588706 0
0.399749216018 -0.147423976329 0
0.400398639498 -0.15062224379 0
0.398240079325 -0.155518929734 0
0.401774514838 -0.155509603279 0
0.399039765326 -0.152032140797 0
0.402288078671 -0.156753478005 0
0.397725066077 -0.156754493166 0
0.40005828901 -0.144459321571 0
0.401061194063 -0.151854572382 0
0.400952985372 -0.15697187393 0
0.400717772789 -0.1452409812 0
0.398969875224 -0.157009151123 0
0.399416552293 -0.153081360498 0
0.399289489296 -0.145231075818 0
0.400603775464 -0.153088009823 0
0.402644157138 -0.156966224212 0
0.397367045043 -0.156964655334 0
0.401792463378 -0.152886857598 0
0.398197774787 -0.152981648409 0
0.399466636595 -0.149028354734 0
0.400553515434 -0.148885162416 0
0.400119724274 -0.152646570014 0
0.400833885438 -0.148590316957 0
0.399200924232 -0.148584623443 0
0.400013294827 -0.147448969704 0
0.398983152914 -0.154846116432 0
0.399561690679 -0.144083493142 0
0.399005448565 -0.154814567307 0
0.401011345896 -0.154819022828 0
0.400920610887 -0.154924874231 0
0.4021598968 -0.154473265711 0
0.402310555955 -0.155871543685 0
0.397670822119 -0.156034997479 0
0.397855300348 -0.154453882231 0
0.400601803173 -0.14402127312 0
0.401870982241 -0.15649329855 0
0.398143634337 -0.156493689271 0
0.398682568913 -0.151613284632 0
0.399593737277 -0.148035963918 0
0.401329625269 -0.151632362856 0
0.401659250026 -0.15682905802 0
0.398211946664 -0.156623295336 0
0.401253355208 -0.146133280815 0
0.400376763258 -0.147900173099 0
0.397515874558 -0.157586846963 0
0.398271999693 -0.158478822893 0
0.402493423114 -0.157584626131 0
0.401753020253 -0.158467215363 0
0.398730606034 -0.146110335704 0
0.400403038382 -0.151384041578 0
0.398771531649 -0.158443874487 0
0.399618640007 -0.151391815381 0
0.401113546221 -0.158677113349 0
0.400187215438 -0.157808022149 0
0.399477544381 -0.14932402548 0
0.398677597278 -0.151577854579 0
0.398681853397 -0.155975729234 0
0.401334336023 -0.15597673399 0
0.400467557507 -0.1492338241 0
0.399903499159 -0.143406182725 0
0.401320797786 -0.151439912458 0
0.399631041074 -0.157504970271 0
0.400001021359 -0.145772226153 0
0.397803546611 -0.156135244197 0
0.402215610018 -0.156131036503 0
0.402499988497 -0.156823039386 0
0.402578075188 -0.157077249194 0
0.397433335782 -0.157079347978 0
0.399556960437 -0.150459498191 0
0.400073066349 -0.14670403522 0
0.401960184147 -0.154760444852 0
0.397494242448 -0.156867421002 0
0.400570965778 -0.150434812083 0
0.398045287997 -0.154677852144 0
0.39893431335 -0.152171029992 0
0.39958212279 -0.154413987355 0
0.400436069813 -0.154418023596 0
0.399421533503 -0.153326245865 0
0.401616235178 -0.153127444133 0
0.401116201936 -0.152290342206 0
0.398010642819 -0.156913895198 0
0.402003364101 -0.156912143384 0
0.400217717699 -0.145062088167 0
0.399846541998 -0.146530310196 0
0.399041699711 -0.144148447541 0
0.40140729157 -0.14497136807 0
0.401688082956 -0.14702384767 0
0.398589878988 -0.145020992918 0
0.398311372336 -0.147109178169 0
0.398534712882 -0.153113417045 0
0.400347971274 -0.15289119072 0
0.401234303283 -0.149956440134 0
0.397889571842 -0.154540655127 0
0.39967304657 -0.152898614877 0
0.398787841859 -0.149966445867 0
0.399796142153 -0.147593135572 0
0.400495500133 -0.156170356918 0
0.400210351684 -0.147469485728 0
0.401484942647 -0.155549166376 0
0.402074592676 -0.154320566641 0
0.400830878951 -0.158561071032 0
0.39753640552 -0.156569350758 0
0.402475287741 -0.156575524328 0
0.40035213601 -0.143287605493 0
0.398757966828 -0.153884358638 0
0.401128149933 -0.144151189762 0
0.401242033287 -0.15388776741 0
0.401768386954 -0.152957149111 0
0.402335589045 -0.157117237632 0
0.397677193937 -0.157119637179 0
0.398249684958 -0.15294981247 0
0.398480247686 -0.155634820082 0
0.399686473666 -0.145161834585 0
0.397653742892 -0.155407566528 0
0.398576981138 -0.151483235934 0
0.399146427084 -0.15059286967 0
0.400736893718 -0.153041071723 0
0.397324579533 -0.157363798556 0
0.402682419958 -0.157362631192 0
0.400019361154 -0.151013750723 0
0.39924595463 -0.158690964303 0
0.402362401729 -0.155463329207 0
0.399869551759 -0.144844610174 0
0.401440530349 -0.151492265882 0
0.400933571377 -0.149941629857 0
0.400376905356 -0.15426718271 0
0.397445237273 -0.156543928639 0
0.402565740727 -0.156543287808 0
0.401395359078 -0.154150959314 0
0.402001134506 -0.155966494336 0
0.399238097375 -0.149328438051 0
0.398421417265 -0.154763830309 0
0.40150926696 -0.154767374363 0
0.399132648734 -0.155610811336 0
0.400884764686 -0.155612645507 0
0.399974754563 -0.14638813471 0
0.40044364975 -0.158552939689 0
0.39902075789 -0.159108487222 0
0.399759862362 -0.148898793796 0
0.399378696324 -0.143295489642 0
0.400960331643 -0.159140921116 0
0.400292298057 -0.148838664857 0
0.400590674253 -0.146246447676 0
0.399482425605 -0.158485098414 0
0.400128630442 -0.148486402374 0
0.399567979012 -0.151856431435 0
0.399399007189 -0.156019410535 0
0.40045678481 -0.151833838325 0
0.401735188733 -0.148409081734 0
0.398282723061 -0.148413843437 0
0.3985253059 -0.156452873235 0
0.40149052532 -0.156452567473 0
0.399381520446 -0.146149982163 0
0.400273944284 -0.145648978734 0
0.4003170505 -0.148220371336 0
0.399706767749 -0.148173016941 0
0.397824403558 -0.155520538045 0
0.398899439544 -0.15361184535 0
0.400857944822 -0.150554492061 0
0.39866516543 -0.157621447102 0
0.402161763474 -0.155529525046 0
0.40226451954 -0.155231759106 0
0.400447606058 -0.1517183868 0
0.399130086278 -0.15072463341 0
0.397310483601 -0.15723967664 0
0.402699142044 -0.157237239097 0
0.400787020844 -0.147402937985 0
0.399863575106 -0.148479638837 0
0.39954665245 -0.151967680397 0
0.401046948728 -0.159126472708 0
0.400052542916 -0.145396755508 0
0.40226591458 -0.157966024079 0
0.397754328622 -0.15799147907 0
0.400337640589 -0.149846498911 0
0.399651254644 -0.149893957582 0
0.398895731246 -0.159073447577 0
0.39796972279 -0.155778485315 0
0.398085289405 -0.153914475612 0
0.397852247263 -0.156867574792 0
0.398324141011 -0.158234021694 0
0.398181524196 -0.153636109586 0
0.401950543812 -0.153995683701 0
0.4017451138 -0.157604589629 0
0.401666816552 -0.158259600031 0
0.402192014972 -0.156686242216 0
0.399156134462 -0.147181947905 0
0.398263849182 -0.157561706902 0
0.399730828526 -0.147495210852 0
0.399888470811 -0.158728939491 0
0.39987820365 -0.154001121734 0
0.400935693339 -0.150724603296 0
0.400182467502 -0.153896695408 0
0.400257691423 -0.147378763038 0
0.399837278865 -0.153902680609 0
0.402604322117 -0.157160915876 0
0.400835501108 -0.143497448598 0
0.39827746314 -0.156073043838 0
0.401737649369 -0.1560737201 0
0.399526714923 -0.155144925202 0
0.400491384848 -0.155147768997 0
0.398533567858 -0.154378594098 0
0.397721354674 -0.155260151616 0
0.400282848032 -0.144032323187 0
0.39936073715 -0.15495767528 0
0.398625002771 -0.155401227949 0
0.401391387259 -0.155401875007 0
0.39740828778 -0.157131485381 0
0.402477025791 -0.15622639409 0
0.400720789763 -0.149038999232 0
0.398285066617 -0.156796384209 0
0.401729960675 -0.156795040588 0
0.401224739179 -0.157932815447 0
0.397543319654 -0.156214788451 0
0.397859935384 -0.157150526036 0
0.402153558768 -0.157147977886 0
0.40182019453 -0.14579695672 0
0.400081337345 -0.146664583986 0
0.402144800312 -0.157893293145 0
0.397853770733 -0.157892090362 0
0.398561898726 -0.152514314073 0
0.400574933058 -0.144782909176 0
0.400024310015 -0.148262533184 0
0.399843459212 -0.144107666926 0
0.401997343881 -0.153689213598 0
0.401467531186 -0.15255998679 0
0.398901363986 -0.150504591722 0
0.398610157624 -0.144187636027 0
0.398237378761 -0.145835169136 0
0.402142187951 -0.155347538581 0
0.397842126026 -0.156498549942 0
0.402171847963 -0.156497448734 0
0.400995320051 -0.155887020356 0
0.398011332826 -0.153705876687 0
0.398924067942 -0.150505740882 0
0.400100319086 -0.149440847945 0
0.39891802887 -0.155870308439 0
0.399899704099 -0.157027558776 0
0.401005304256 -0.151593447973 0
0.399016829295 -0.151601341651 0
0.398870174653 -0.153069456553 0
0.401090580246 -0.153063681175 0
0.397407981171 -0.157574494518 0
0.402600018328 -0.157572319191 0
0.399253249081 -0.14923777912 0
0.401123609041 -0.15064342011 0
0.399795031878 -0.149645650213 0
0.401314692757 -0.156769446623 0
0.39906949107 -0.143541635757 0
0.401135183936 -0.153135199072 0
0.402488640131 -0.157201285189 0
0.397523382539 -0.157203997639 0
0.399284776741 -0.153917535543 0
0.399406143546 -0.144575339831 0
0.400733068449 -0.153922133819 0
0.399495810308 -0.148394666224 0
0.400548256656 -0.157396513306 0
0.400640724977 -0.15920019694 0
0.401860730969 -0.153634772021 0
0.398385648393 -0.152549270433 0
0.402487390916 -0.156829624467 0
0.397524841444 -0.156831035377 0
0.402375661707 -0.157357950871 0
0.397622120093 -0.157333183656 0
0.399676026602 -0.145746536068 0
0.401735358695 -0.154254504296 0
0.401577997014 -0.144256485546 0
0.400089919899 -0.142920702257 0
0.399948091307 -0.145651526191 0
0.397735394811 -0.155329103104 0
0.398292890495 -0.154362509936 0
0.399023225161 -0.156018822366 0
0.400993907468 -0.1560196696 0
0.400274153047 -0.150544695485 0
0.400470586034 -0.148188221719 0
0.399647533312 -0.143081941966 0
0.40175119451 -0.158493039394 0
0.397980170837 -0.155916832825 0
0.40202289616 -0.155919261109 0
0.401527690032 -0.152190873319 0
0.398113811622 -0.158365138467 0
0.399398295648 -0.159249860176 0
0.402239650032 -0.154851973629 0
0.3985669392 -0.156882923767 0
0.400001242123 -0.147318960967 0
0.401352503954 -0.152137933398 0
0.401575530443 -0.152107465134 0
0.400634005859 -0.149102556673 0
0.401203952073 -0.150678067707 0
0.398756493941 -0.152152250978 0
0.397657116662 -0.156689678003 0
0.401023856223 -0.145648430558 0
0.400714088771 -0.146863955932 0
0.397679485922 -0.156478899789 0
0.402332873901 -0.156488304364 0
0.398811669923 -0.156317457414 0
0.40120485308 -0.156317568239 0
0.400050177868 -0.146681596042 0
0.401857057616 -0.155119312279 0
0.401789487751 -0.155550071339 0
0.40002799628 -0.147344245782 0
0.39842418336 -0.152143635735 0
0.399551038728 -0.149482857161 0
0.398005812758 -0.155257885615 0
0.397824808215 -0.156965468536 0
0.4021885524 -0.156963638969 0
0.400191315115 -0.158868397956 0
0.400023161523 -0.150768958123 0
0.399967578252 -0.152201459614 0
0.397779219253 -0.154835771587 0
0.400518276411 -0.149459882426 0
0.398958691474 -0.145642960135 0
0.397931016491 -0.155060638062 0
0.400849998147 -0.151241418587 0
0.400655757841 -0.159348943411 0
0.402156466158 -0.147640729922 0
0.400059354771 -0.152213561787 0
0.399361804173 -0.157266581081 0
0.400077279351 -0.145642495614 0
0.400066691047 -0.15087307749 0
0.399867805873 -0.148079337651 0
0.401975602149 -0.149141289496 0
0.397826383547 -0.147653859576 0
0.399202833115 -0.151238729579 0
0.398045982653 -0.149151005868 0
0.400000547661 -0.145084474334 0
0.400166016532 -0.148032392369 0
0.400137361904 -0.143660040451 0
0.402649879493 -0.157231357278 0
0.397360821317 -0.157233984513 0
0.402191719956 -0.1462380991 0
0.401975272717 -0.145130682825 0
0.399785993729 -0.159134238504 0
0.398059734912 -0.145134900335 0
0.397834785661 -0.146278446308 0
0.401631586121 -0.150864583768 0
0.401051714026 -0.152486962382 0
0.399911894531 -0.146831597202 0
0.398391455796 -0.150874764371 0
0.398971036157 -0.152494096311 0
0.402402491571 -0.156456500674 0
0.401100999723 -0.157593526685 0
0.399849381316 -0.150314152294 0
0.400703165465 -0.143051426368 0
0.398978920659 -0.144651297493 0
0.401211522501 -0.143495760445 0
0.40039736088 -0.14593872746 0
0.402285386445 -0.155870466585 0
0.402481728362 -0.157024306761 0
0.397530382115 -0.157026282315 0
0.398206846811 -0.155498674434 0
0.402585103776 -0.156815235817 0
0.397426135838 -0.156816247082 0
0.400278872518 -0.155364550859 0
0.399194170071 -0.14967590092 0
0.400397620448 -0.15912356149 0
0.399650021396 -0.143692764704 0
0.400698366209 -0.151503339773 0
0.400020101774 -0.154735785444 0
0.399998994483 -0.154739584309 0
0.397625912216 -0.15622314919 0
0.40077791715 -0.149817032646 0
0.398969313172 -0.147777135675 0
0.399881926251 -0.148246008149 0
0.401918706473 -0.15695836264 0
0.399891789745 -0.146835902045 0
0.399224508346 -0.149752403917 0
0.401086084817 -0.144749388947 0
0.400020297593 -0.146513531688 0
0.39755045427 -0.155959467791 0
0.399239085515 -0.15254162057 0
0.399732518261 -0.144783319343 0
0.399745061531 -0.152856308051 0
0.399247139955 -0.151131365042 0
0.401151992531 -0.149071385606 0
0.399733575189 -0.153737735595 0
0.400285805565 -0.153743477701 0
0.398872032324 -0.149079962234 0
0.400277291714 -0.149682997864 0
0.400365078106 -0.144447864146 0
0.401314725531 -0.147942309403 0
0.402609491779 -0.156864211707 0
0.397402068546 -0.156847075395 0
0.399406086963 -0.159401676127 0
0.400097286483 -0.148268649694 0
0.4024579346 -0.15594521792 0
0.400183441351 -0.144558997549 0
0.398686831009 -0.143717578373 0
0.397890815704 -0.156740071843 0
0.402122618791 -0.156738917007 0
0.39814321836 -0.157067592611 0
0.401871290885 -0.157065328782 0
0.399356624401 -0.144075131699 0
0.397855007229 -0.154795688468 0
0.401182767147 -0.146841654217 0
0.402329596094 -0.157104269931 0
0.400846254889 -0.149995929608 0
0.399197694796 -0.146498796791 0
0.402386419122 -0.156225529199 0
0.397765447737 -0.157249412643 0
0.402247677352 -0.157246470308 0
0.40059330041 -0.155072729948 0
0.401633916838 -0.153999826137 0
0.400592170405 -0.150420984257 0
0.398040583875 -0.156238560672 0
0.401973777428 -0.156238299743 0
0.398712706205 -0.154502893731 0
0.399928068357 -0.147112936742 0
0.401273902392 -0.154527628025 0
0.400718634049 -0.149126921221 0
0.400551007201 -0.143561328797 0
0.398032160904 -0.153775901845 0
0.399438166085 -0.150455491999 0
0.399244425242 -0.154442110906 0
0.400772889184 -0.154445567975 0
0.401275785495 -0.155060915671 0
0.398669306959 -0.15286207557 0
0.399363845987 -0.159477545597 0
0.398541515288 -0.156696259857 0
0.4014743233 -0.156695260112 0
0.400750787541 -0.144312533379 0
0.400574766421 -0.153550386365 0
0.399445721449 -0.153557986258 0
0.399670509653 -0.148447038591 0
0.399835946771 -0.147330602185 0
0.399520329839 -0.158999686769 0
0.399214141791 -0.152547826955 0
0.39915260672 -0.1540105134 0
0.402125689458 -0.154647270993 0
0.400414601792 -0.153321105587 0
0.400807186908 -0.152600218647 0
0.40035741274 -0.148357721302 0
0.402649361189 -0.157069219302 0
0.397361295624 -0.157071144071 0
0.398840284114 -0.151672004405 0
0.398443189344 -0.155758556462 0
0.401570691905 -0.155753327288 0
0.401733174409 -0.153232931014 0
0.398824419873 -0.155660612198 0
0.40118053312 -0.155653137375 0
0.397287388827 -0.157336914614 0
0.402721466533 -0.157334678198 0
0.398820449281 -0.150645974022 0
0.400735028121 -0.15801822977 0
0.402306141425 -0.155396750492 0
0.400701719257 -0.154087056759 0
0.401358654149 -0.152929162452 0
0.400142379148 -0.146881563885 0
0.399431499344 -0.149891792566 0
0.398248699547 -0.144468920696 0
0.401617500846 -0.154814285253 0
0.40250048009 -0.156295220425 0
0.397510113924 -0.156296739588 0
0.398182777837 -0.154853460831 0
0.398284829727 -0.153220612478 0
0.400534259515 -0.14851466889 0
0.398878113197 -0.152890487069 0
0.39986894316 -0.145956555074 0
0.401331289808 -0.152749871703 0
0.400855936429 -0.152352607639 0
0.399729389266 -0.156194071016 0
0.401195967732 -0.151786516266 0
0.401487117609 -0.145520344406 0
0.401610447022 -0.152191601374 0
0.402273604481 -0.155043803421 0
0.400246647544 -0.156903368556 0
0.398520932213 -0.151836490597 0
0.399710256977 -0.151146874179 0
0.399194968297 -0.158125427719 0
0.3986734537 -0.155088130657 0
0.398665835235 -0.151313113247 0
0.39964884982 -0.148031683198 0
0.398883694645 -0.151374482929 0
0.39831588635 -0.153958075609 0
0.398527744447 -0.145524108808 0
0.398453566772 -0.146481877806 0
0.397636066923 -0.157275770673 0
0.402376514934 -0.157272703308 0
0.402692747429 -0.157208506301 0
0.397316448521 -0.157211355327 0
0.400348620921 -0.142850395939 0
0.400156281546 -0.145643529766 0
0.400525745959 -0.152110649906 0
0.400124087415 -0.14722380528 0
0.401586332508 -0.156196621818 0
0.398929912931 -0.158398197867 0
0.402372810713 -0.155585912922 0
0.400336310099 -0.147843431699 0
0.400471667905 -0.150106587846 0
0.401093824211 -0.150736332162 0
0.398636080402 -0.153484934529 0
0.399500785842 -0.145859426964 0