# vtk DataFile Version 2.0
Generated with Solid Solver
ASCII
DATASET UNSTRUCTURED_GRID
POINTS 999 float 
0.2 4.325 0.0
1.4 4.325 0.0
1.4 4.825 0.0
0.2 4.825 0.0
1.4 4.34523264049 0.0
1.4 4.36751203886 0.0
1.4 4.39204525371 0.0
1.4 4.4190602782 0.0
1.4 4.44880817466 0.0
1.4 4.48156541084 0.0
1.4 4.51763640748 0.0
1.4 4.5573564007 0.0
1.4 4.60109451608 0.0
1.4 4.64925723872 0.0
1.4 4.70229217343 0.0
1.4 4.76069218095 0.0
1.33333333333 4.825 0.0
1.26666666667 4.825 0.0
1.2 4.825 0.0
1.13333333333 4.825 0.0
1.06666666667 4.825 0.0
1.0 4.825 0.0
0.933333333334 4.825 0.0
0.866666666668 4.825 0.0
0.800000000001 4.825 0.0
0.733333333334 4.825 0.0
0.666666666668 4.825 0.0
0.600000000001 4.825 0.0
0.533333333334 4.825 0.0
0.466666666667 4.825 0.0
0.4 4.825 0.0
0.333333333334 4.825 0.0
0.266666666667 4.825 0.0
0.2 4.76069218095 0.0
0.2 4.70229217343 0.0
0.2 4.64925723872 0.0
0.2 4.60109451608 0.0
0.2 4.5573564007 0.0
0.2 4.51763640748 0.0
0.2 4.48156541084 0.0
0.2 4.44880817466 0.0
0.2 4.4190602782 0.0
0.2 4.39204525371 0.0
0.2 4.36751203886 0.0
0.2 4.34523264049 0.0
0.212131543907 4.30926329506 0.0
0.224675715302 4.29385348652 0.0
0.23762369102 4.27878141198 0.0
0.250966423879 4.26405760374 0.0
0.264694484585 4.24969246611 0.0
0.278798324214 4.23569599189 0.0
0.293267939266 4.22207810803 0.0
0.308093289028 4.20884826442 0.0
0.323263842145 4.19601585877 0.0
0.338769084145 4.18358978512 0.0
0.354597997314 4.17157887342 0.0
0.37073960121 4.15999145532 0.0
0.387182441982 4.14883575334 0.0
0.403915091795 4.13811952025 0.0
0.420925712897 4.12785033813 0.0
0.438202430937 4.11803537461 0.0
0.455733079095 4.10868154223 0.0
0.473505374364 4.09979539439 0.0
0.491506842655 4.09138316882 0.0
0.509724826085 4.0834507802 0.0
0.528146580414 4.07600377808 0.0
0.546759103951 4.06904741762 0.0
0.56554943677 4.06258654322 0.0
0.584504260001 4.05662573401 0.0
0.60361041518 4.0511691282 0.0
0.622854334779 4.04622060039 0.0
0.642222678753 4.04178358113 0.0
0.661701681839 4.03786122392 0.0
0.681277836375 4.03445624851 0.0
0.700937245817 4.03157107217 0.0
0.720666255912 4.02920769845 0.0
0.740450894784 4.02736780161 0.0
0.76027736978 4.02605266363 0.0
0.780131702711 4.02526321235 0.0
0.799999999998 4.025 0.0
0.819868297285 4.02526321235 0.0
0.839722630216 4.02605266363 0.0
0.859549105212 4.02736780161 0.0
0.879333744085 4.02920769845 0.0
0.89906275418 4.03157107217 0.0
0.918722163621 4.03445624851 0.0
0.938298318157 4.03786122392 0.0
0.957777321244 4.04178358113 0.0
0.977145665218 4.04622060039 0.0
0.996389584817 4.0511691282 0.0
1.01549574 4.05662573401 0.0
1.03445056323 4.06258654322 0.0
1.05324089605 4.06904741762 0.0
1.07185341958 4.07600377808 0.0
1.09027517391 4.0834507802 0.0
1.10849315734 4.09138316882 0.0
1.12649462563 4.09979539439 0.0
1.1442669209 4.10868154222 0.0
1.16179756906 4.1180353746 0.0
1.1790742871 4.12785033813 0.0
1.1960849082 4.13811952024 0.0
1.21281755802 4.14883575334 0.0
1.22926039879 4.15999145532 0.0
1.24540200269 4.17157887342 0.0
1.26123091585 4.18358978512 0.0
1.27673615785 4.19601585877 0.0
1.29190671097 4.20884826442 0.0
1.30673206073 4.22207810803 0.0
1.32120167579 4.23569599189 0.0
1.33530551541 4.24969246611 0.0
1.34903357612 4.26405760374 0.0
1.36237630898 4.27878141198 0.0
1.3753242847 4.29385348652 0.0
1.38786845609 4.30926329506 0.0
1.05632730172 4.46025283906 0.0
0.549964048968 4.4630053958 0.0
0.806135520676 4.31186690218 0.0
0.603895783049 4.26079310371 0.0
1.22984770884 4.38318704125 0.0
0.3703382852 4.38423552752 0.0
0.995322815839 4.25565031136 0.0
0.728315816804 4.1765935937 0.0
0.872128173905 4.17288724072 0.0
1.14059401893 4.27298468684 0.0
0.461553191009 4.27181671009 0.0
0.784706775856 4.56821390922 0.0
0.398287125272 4.57945970538 0.0
1.20625306554 4.58334743514 0.0
0.624100842742 4.1589824436 0.0
0.5257453845 4.18811776279 0.0
0.978502430793 4.15488737058 0.0
1.07419209812 4.18825154482 0.0
0.364313698077 4.28677035763 0.0
1.23509538257 4.28681716733 0.0
0.68124123937 4.39284548972 0.0
1.31679378691 4.35012066749 0.0
0.283206213094 4.35012066749 0.0
0.791498533126 4.11467141721 0.0
0.931481076052 4.3801344917 0.0
0.966719065571 4.62778042839 0.0
0.684451667517 4.11068036752 0.0
0.618335406951 4.62686910993 0.0
0.450982331762 4.19686171732 0.0
0.915674266355 4.10995633851 0.0
1.14900051594 4.19689012964 0.0
1.30193709687 4.4481448133 0.0
0.298574667609 4.44816296922 0.0
1.05734787542 4.34990107617 0.0
0.539273225177 4.35252599628 0.0
0.709896798149 4.27721026287 0.0
0.895708916005 4.26924194389 0.0
0.813273511364 4.43835766235 0.0
0.559289631452 4.13230879113 0.0
1.04001407307 4.13281539633 0.0
0.801161810585 4.23146244955 0.0
0.665113819616 4.52056650186 0.0
0.852577362173 4.09111846388 0.0
0.390256727869 4.2242806298 0.0
1.20974450479 4.22428104599 0.0
0.921542541183 4.52778058719 0.0
1.14030889032 4.36437344809 0.0
1.15600477272 4.46808538305 0.0
0.435243219029 4.4750581257 0.0
0.462045157798 4.36654654286 0.0
0.735806812738 4.08472269746 0.0
1.30082934537 4.29793772796 0.0
0.299170654625 4.29793772796 0.0
0.533651712118 4.26265983853 0.0
0.666130919144 4.21652131559 0.0
1.0676097303 4.26179469382 0.0
1.08054433577 4.58530946155 0.0
0.506773767255 4.56568295079 0.0
0.626745312844 4.10124420826 0.0
0.933845304214 4.2106954732 0.0
0.293717639664 4.55175000185 0.0
0.312505022079 4.66426411351 0.0
1.3058164124 4.55154930624 0.0
1.29054387065 4.66302765963 0.0
0.973467966326 4.09941619478 0.0
0.487935413164 4.15087084015 0.0
0.461549079751 4.68836834982 0.0
1.11203248746 4.15093503889 0.0
1.14453515393 4.70617370303 0.0
0.840217564202 4.68891146633 0.0
0.585347033288 4.20539048534 0.0
0.619177396637 4.34227576306 0.0
0.331644410315 4.24962190462 0.0
1.26835558968 4.24962190462 0.0
1.01536156978 4.19987473052 0.0
0.809331033562 4.07065709122 0.0
0.982321540791 4.33437358971 0.0
0.725600576914 4.66999651799 0.0
0.812291456186 4.16642942492 0.0
0.335887692543 4.33918235669 0.0
1.26344844681 4.34017131907 0.0
1.23449730504 4.49457441524 0.0
1.34334172095 4.40539551957 0.0
0.256658279045 4.40539551957 0.0
0.741646926828 4.34287908527 0.0
0.674799084703 4.16673768522 0.0
1.18647435526 4.30955189749 0.0
0.360563250283 4.49596479569 0.0
0.873716483853 4.33845499203 0.0
0.418704489949 4.31146264283 0.0
0.492670911224 4.22931614809 0.0
0.403480880356 4.19046776931 0.0
1.19651541215 4.1904686246 0.0
0.728649253738 4.46214546491 0.0
1.00883674467 4.40174664879 0.0
1.11035034557 4.23161841276 0.0
0.261968539765 4.3130079512 0.0
1.33803146023 4.3130079512 0.0
0.74649980488 4.1318354354 0.0
0.927597725248 4.1577597079 0.0
0.892956618256 4.07619338913 0.0
0.659794281787 4.07951387326 0.0
0.587663534405 4.09486537006 0.0
0.942353209926 4.07935300973 0.0
1.01493747319 4.09476013719 0.0
0.613130017774 4.41369803882 0.0
0.449373501074 4.15377191978 0.0
0.514840228377 4.12225850006 0.0
0.497057592 4.41333092106 0.0
1.15061382426 4.15379293084 0.0
1.08514419473 4.12228328152 0.0
0.745617635771 4.23098957592 0.0
0.87523452213 4.59853036549 0.0
0.855262884783 4.2258970831 0.0
1.01126200032 4.53280064162 0.0
1.09391916408 4.40632408872 0.0
1.04436265455 4.71482000827 0.0
0.314320181089 4.38773968607 0.0
1.28649331902 4.38743720145 0.0
0.771211579291 4.06316862024 0.0
0.432259099658 4.24006002157 0.0
0.698583889427 4.07144353526 0.0
1.16802128371 4.238862881 0.0
1.09587629216 4.3086676659 0.0
1.35920470355 4.35666960471 0.0
0.240795296449 4.35666960471 0.0
0.504003580654 4.30815758118 0.0
0.579942709371 4.5342075073 0.0
0.875915224914 4.12815792528 0.0
0.426503136644 4.40717733008 0.0
0.57541416445 4.30365301522 0.0
0.683877978289 4.33161848113 0.0
0.888061695889 4.44633509246 0.0
0.26012287522 4.49859249103 0.0
1.33987712478 4.49859249103 0.0
0.801393572636 4.37060096582 0.0
0.558460082533 4.72496728209 0.0
1.1741923373 4.41132830101 0.0
0.83220012886 4.12779415912 0.0
1.02815069622 4.30053276509 0.0
0.948308583502 4.2880204454 0.0
0.846588933095 4.50834596945 0.0
0.343666800815 4.43485820652 0.0
1.25632767671 4.43480360053 0.0
0.97849585731 4.47031535602 0.0
1.10170977548 4.51507265998 0.0
0.662193131828 4.26809398492 0.0
0.400503668388 4.26881657105 0.0
1.20117145985 4.26130427377 0.0
0.350957892513 4.21796558019 0.0
1.24904210749 4.21796558019 0.0
0.771964652188 4.18905379403 0.0
0.932165148285 4.72736281402 0.0
0.373672364094 4.73321357765 0.0
0.760245937722 4.28409350779 0.0
0.848718469252 4.05767763075 0.0
1.23385612561 4.7358294747 0.0
0.846421485813 4.28065918421 0.0
0.651597058631 4.13043284014 0.0
0.650489852552 4.72138045504 0.0
0.58457834847 4.16375088261 0.0
0.48701309933 4.18859927013 0.0
0.708495738406 4.58856947756 0.0
1.11203398596 4.18878062515 0.0
0.54865558244 4.10250047869 0.0
1.05126102377 4.10234629471 0.0
0.300013757486 4.26259646442 0.0
1.29998624251 4.26259646442 0.0
0.9465032388 4.12718070354 0.0
0.708587583337 4.14146095907 0.0
0.973348904468 4.19537871864 0.0
0.628721855632 4.19538356945 0.0
0.380175010018 4.34021880077 0.0
0.662092932411 4.45899041267 0.0
1.05133526787 4.22221992007 0.0
0.528087045766 4.64327882187 0.0
1.22233124543 4.33521693908 0.0
1.19001193434 4.36273586668 0.0
0.853024099244 4.39544003492 0.0
0.542800296246 4.22324366905 0.0
0.247706318737 4.45239119247 0.0
1.35229368126 4.45239119247 0.0
0.599153768578 4.12953797005 0.0
1.01616570494 4.16227683178 0.0
0.744705786938 4.40569544575 0.0
1.31929001115 4.73702550052 0.0
0.777615355331 4.15113602511 0.0
1.33132411895 4.60631378639 0.0
0.265621610877 4.60975488866 0.0
0.532023338888 4.15374454388 0.0
1.0697792195 4.15241429251 0.0
0.286371037106 4.73010312914 0.0
0.497725885905 4.50153668256 0.0
0.46053455822 4.31587947599 0.0
0.433799237968 4.54629400991 0.0
0.388624781906 4.65094200004 0.0
0.554823673752 4.40451940232 0.0
1.1421595646 4.31818301431 0.0
1.14760043966 4.61655103139 0.0
1.21258698805 4.65320200685 0.0
1.16279096046 4.53292621409 0.0
0.995762647814 4.12508772517 0.0
0.456229040627 4.61456685246 0.0
0.707289391156 4.21520271873 0.0
0.763036833302 4.74285445535 0.0
0.78386198569 4.49787013126 0.0
[...]
POINT_DATA 999
VECTORS Displacement float
0.197235106528 -0.1961767271 0
0.202687325994 -0.196215768439 0
0.2 -0.2 0
0.2 -0.2 0
0.202926215571 -0.196199342425 0
0.203156111772 -0.196177869949 0
0.203362560905 -0.196153079655 0
0.203538733504 -0.196145054533 0
0.203647979323 -0.196163477368 0
0.20371938354 -0.196218857498 0
0.203693298599 -0.196319832338 0
0.203562478985 -0.196476009988 0
0.203311271023 -0.19672891353 0
0.202888020838 -0.197103269542 0
0.202270984792 -0.197665360838 0
0.201376793389 -0.198516591513 0
0.2 -0.2 0
0.2 -0.2 0
0.2 -0.2 0
0.2 -0.2 0
0.2 -0.2 0
0.2 -0.2 0
0.2 -0.2 0
0.2 -0.2 0
0.2 -0.2 0
0.2 -0.2 0
0.2 -0.2 0
0.2 -0.2 0
0.2 -0.2 0
0.2 -0.2 0
0.2 -0.2 0
0.2 -0.2 0
0.2 -0.2 0
0.198623508954 -0.19851434582 0
0.197722386232 -0.197655772994 0
0.197070071319 -0.197085544954 0
0.196654305487 -0.196701924825 0
0.196399590537 -0.196443923821 0
0.196260761371 -0.196284829738 0
0.196228391816 -0.196183312175 0
0.196294649283 -0.19612708213 0
0.196399214422 -0.196107839449 0
0.196570996193 -0.196115117259 0
0.196773346445 -0.196139349491 0
0.196999510949 -0.196160467655 0
0.197429909596 -0.196048912558 0
0.197644368812 -0.195905704191 0
0.197876142833 -0.195738609253 0
0.198129920979 -0.195548110344 0
0.198404552411 -0.19532603882 0
0.198691956674 -0.195067045382 0
0.198996625186 -0.194773964308 0
0.19933114631 -0.194443051808 0
0.199692363549 -0.194044471768 0
0.200061072481 -0.193610013008 0
0.200457119546 -0.193105286155 0
0.200902280205 -0.192518353413 0
0.20137238581 -0.191801316243 0
0.201902166438 -0.190901469782 0
0.202413835089 -0.189799090234 0
0.202833049239 -0.188697325225 0
0.203145916846 -0.187631915051 0
0.203371995721 -0.186586265841 0
0.203529496729 -0.185591420224 0
0.203623381 -0.184623723692 0
0.203661457553 -0.183708198637 0
0.203635593483 -0.182815077502 0
0.203560262503 -0.181988129948 0
0.203416705856 -0.181250741412 0
0.203242204381 -0.180569522496 0
0.203021778247 -0.179940984937 0
0.202775118265 -0.179377068102 0
0.202492750902 -0.178876708315 0
0.20219373015 -0.17843899785 0
0.201861799684 -0.178059261157 0
0.20151419828 -0.177749490401 0
0.201142114575 -0.177497253477 0
0.200762844905 -0.177307301867 0
0.200368643604 -0.17717963187 0
0.199927311663 -0.177049942494 0
0.199501140032 -0.177156228622 0
0.199103052692 -0.177300460158 0
0.198723383633 -0.177487728282 0
0.198358395623 -0.177739269852 0
0.198010365056 -0.178053478904 0
0.197678589908 -0.178432157041 0
0.197369638294 -0.178878771771 0
0.197098047848 -0.179376796534 0
0.196853756695 -0.179941984028 0
0.196635524129 -0.180573110471 0
0.196463204545 -0.181257423755 0
0.196329151154 -0.182007952098 0
0.196238420605 -0.18279259433 0
0.1962110017 -0.183690802023 0
0.196251442765 -0.184615885974 0
0.196347040608 -0.185587453139 0
0.196506889896 -0.186585900997 0
0.196733284466 -0.187630453756 0
0.19705088607 -0.188702958153 0
0.197461834392 -0.189788956939 0
0.197975717573 -0.190899842278 0
0.198509408891 -0.191806515327 0
0.198984827049 -0.192530885907 0
0.199434315193 -0.193122087194 0
0.199834008438 -0.193629989266 0
0.20020602303 -0.194067075481 0
0.200570380963 -0.194468037056 0
0.20090784794 -0.194800988588 0
0.201215297368 -0.195095964899 0
0.201505411746 -0.195356726861 0
0.201782601696 -0.195580428091 0
0.202038852244 -0.195772554918 0
0.202273071622 -0.195941302071 0
0.202489998868 -0.196086193772 0
0.202366478969 -0.192462051714 0
0.197632484406 -0.192444355693 0
0.200003068919 -0.185904409499 0
0.198975838507 -0.186203467415 0
0.203121999861 -0.193957285369 0
0.196808567131 -0.193949307455 0
0.200875137085 -0.186035810433 0
0.20005774814 -0.181833107631 0
0.199808658608 -0.181724318217 0
0.20178411634 -0.190277207101 0
0.198151071483 -0.19018733586 0
0.199847972978 -0.19376581055 0
0.197143532658 -0.196279492658 0
0.202811725871 -0.196379588867 0
0.200521345014 -0.182853111449 0
0.199980261163 -0.186313066243 0
0.199282727998 -0.182800880958 0
0.199919748749 -0.186310257594 0
0.197749617891 -0.193207868957 0
0.202166042158 -0.193206717086 0
0.198828753169 -0.189039082781 0
0.202976682555 -0.195179085382 0
0.196950591183 -0.195152446932 0
0.200010668926 -0.179640887367 0
0.201194720071 -0.188775121662 0
0.20122475698 -0.195752412993 0
0.200958021163 -0.18039930804 0
0.198637371432 -0.195796932831 0
0.199642161937 -0.189281900487 0
0.19891406362 -0.180376288647 0
0.200254226451 -0.1892828791 0
0.203532000276 -0.195537982181 0
0.196413563787 -0.195511739233 0
0.202089550181 -0.189835727273 0
0.197796855246 -0.189963910674 0
0.199425698466 -0.185172489828 0
0.200472602351 -0.18497364901 0
0.200105361749 -0.189940856006 0
0.201416537085 -0.183847874428 0
0.198485458344 -0.183832106766 0
0.19995445105 -0.183284219975 0
0.198685008852 -0.192832245089 0
0.199354206681 -0.179141483808 0
0.198909994635 -0.191989449118 0
0.20099279611 -0.192001294212 0
0.20113743319 -0.192950290881 0
0.202677722784 -0.191893658867 0
0.203002120649 -0.193999539619 0
0.196895946794 -0.19422665744 0
0.197252843538 -0.191872128474 0
0.200706169434 -0.179060639046 0
0.202337104151 -0.194750821109 0
0.19758120409 -0.194725661683 0
0.19859717621 -0.187900131156 0
0.199692482331 -0.183794310351 0
0.201304842543 -0.187910148645 0
0.202166362726 -0.195478338154 0
0.197620752768 -0.195170590995 0
0.201679675587 -0.181219555793 0
0.200146774452 -0.183615196075 0
0.196590827014 -0.196465102067 0
0.197620968441 -0.197786022812 0
0.203372940988 -0.19648257592 0
0.202387619697 -0.197781647781 0
0.198166226966 -0.181179997036 0
0.201114837415 -0.18687133104 0
0.198339046828 -0.197762931345 0
0.198774814412 -0.1868697905 0
0.201489115734 -0.198100227253 0
0.200231271101 -0.196946338505 0
0.199691413832 -0.185050954448 0
0.198446980865 -0.188280450016 0
0.198397925353 -0.193882503386 0
0.201511494038 -0.193903367956 0
0.200106589722 -0.184914683334 0
0.199808137887 -0.178355169863 0
0.201442191795 -0.188081294859 0
0.199506477951 -0.196522496424 0
0.199912657987 -0.181228982112 0
0.197085657142 -0.194202883257 0
0.202848162686 -0.194216100227 0
0.203326608836 -0.195350140147 0
0.203427297166 -0.195698833912 0
0.196509054151 -0.195670003721 0
0.199463019779 -0.187054351371 0
0.200264520803 -0.182161157134 0
0.202396470962 -0.192141549452 0
0.196601919275 -0.195399967388 0
0.2005792409 -0.187001744765 0
0.19751649247 -0.192023821847 0
0.198979190051 -0.188354039822 0
0.199795001669 -0.191228580242 0
0.200099877185 -0.191233818695 0
0.199255775185 -0.190821326007 0
0.201924891573 -0.190338615523 0
0.200977628066 -0.188505043038 0
0.197376986057 -0.195386065359 0
0.202543557262 -0.195416133453 0
0.200278885921 -0.180336667429 0
0.19950631495 -0.181928109525 0
0.19871453726 -0.179130059788 0
0.201738203666 -0.179962173251 0
0.202255930233 -0.182053195406 0
0.19811348277 -0.180000826641 0
0.1975933527 -0.182132553629 0
0.19817762274 -0.190373732353 0
0.201078062358 -0.188642409001 0
0.202033251805 -0.185187420843 0
0.197282074064 -0.192121371887 0
0.198807338304 -0.188641128711 0
0.197850500565 -0.185181737804 0
0.199791458143 -0.183429284832 0
0.20061603814 -0.194682814861 0
0.2000929584 -0.18327099758 0
0.201884711017 -0.193728567026 0
0.202576069294 -0.191820425011 0
0.201093698254 -0.197957215831 0
0.196677751882 -0.19489107351 0
0.203255680485 -0.194922477537 0
0.200357280135 -0.178216326527 0
0.198607545229 -0.190648176701 0
0.201342665183 -0.179118947445 0
0.20127388009 -0.190646812777 0
0.202011044723 -0.189745118244 0
0.203055601119 -0.195749448677 0
0.196872296053 -0.195717052562 0
0.197911424769 -0.189735904847 0
0.198012207736 -0.193838341012 0
0.199434447387 -0.180407584308 0
0.196909005618 -0.193251760201 0
0.198386162053 -0.187975422938 0
0.199014554029 -0.187138714609 0
0.200857960033 -0.190424667192 0
0.196328575425 -0.196125776473 0
0.203620976053 -0.196152156591 0
0.199976945396 -0.187799884649 0
0.198990598434 -0.198141802201 0
0.203038829695 -0.193342329841 0
0.199725015389 -0.180091106903 0
0.201526139784 -0.187964701174 0
0.200900940693 -0.186193319935 0
0.20043992413 -0.192100120031 0
0.196546732321 -0.194887033395 0
0.203395388778 -0.194903191028 0
0.201711442343 -0.191821356196 0
0.202589460358 -0.194216379686 0
0.199214561866 -0.185433934258 0
0.198052593722 -0.192032487449 0
0.201731918795 -0.192023895728 0
0.199086428567 -0.193269931762 0
0.200816549236 -0.193287476391 0
0.199959208106 -0.181973985204 0
0.200573453417 -0.197969724774 0
0.198659125232 -0.198707697473 0
0.199710371882 -0.185077305751 0
0.199176602152 -0.178188362513 0
0.201303364361 -0.198758814244 0
0.200233189591 -0.184992758484 0
0.200900624659 -0.181498172121 0
0.199311356583 -0.197870713381 0
0.200522086512 -0.183932568672 0
0.19992354524 -0.187699590382 0
0.199206345406 -0.194469139534 0
0.199973790617 -0.187662100009 0
0.20243675483 -0.183487503999 0
0.197435799685 -0.183473168809 0
0.198159445023 -0.194647328065 0
0.201752739401 -0.194672861836 0
0.198938287831 -0.18137699656 0
0.200422218766 -0.180971867518 0
0.199989514794 -0.183845449982 0
0.199909602134 -0.183805829649 0
0.197146172337 -0.193292755213 0
0.198606354651 -0.191141916941 0
0.200601964992 -0.186461582505 0
0.198215258096 -0.196613014776 0
0.202739124709 -0.19331044641 0
0.202874497982 -0.192929304187 0
0.200479535485 -0.188698853246 0
0.19926516884 -0.186660313805 0
0.196318605712 -0.195928231227 0
0.203624969084 -0.195956782498 0
0.201251744481 -0.182637470834 0
0.199333233952 -0.183905710864 0
0.199424513135 -0.189026849839 0
0.201437612395 -0.198744642365 0
0.200035112795 -0.180771832101 0
0.203086685509 -0.197057969925 0
0.196901483078 -0.197075130486 0
0.200905565455 -0.185268459996 0
0.198937301327 -0.185295413635 0
0.198471400961 -0.198657879959 0
0.197321313758 -0.193940009328 0
0.197624193456 -0.19099823296 0
0.197111037666 -0.195459349037 0
0.197715118179 -0.197436664577 0
0.197713732859 -0.190963384565 0
0.202331857211 -0.191114885887 0
0.202318167402 -0.196551789808 0
0.202245059181 -0.197480950021 0
0.20288966506 -0.195202318454 0
0.198560641393 -0.182383994136 0
0.197659796947 -0.196486755045 0
0.199786426108 -0.183237336057 0
0.199847233573 -0.198224602136 0
0.199816315444 -0.191748659789 0
0.200984524329 -0.187289229087 0
0.20076200707 -0.190205836434 0
0.200076694906 -0.183085411606 0
0.19912408093 -0.190204845272 0
0.203496380283 -0.195843051528 0
0.20094812253 -0.178421563537 0
0.197788088049 -0.194061256475 0
0.202128031033 -0.194082289212 0
0.199698093397 -0.192471460204 0
0.200199198395 -0.192484079956 0
0.198121385455 -0.192116629394 0
0.197013215796 -0.192977892989 0
0.200301191301 -0.179114154586 0
0.199163852124 -0.193019218044 0
0.198322721569 -0.192975598415 0
0.201587578648 -0.192988684732 0
0.196464120577 -0.195777740349 0
0.203252362027 -0.194463603784 0
0.200573428543 -0.184997105279 0
0.197793656675 -0.195194914382 0
0.202122207869 -0.195224035091 0
0.201612956657 -0.197055240841 0
0.196705643764 -0.194440194084 0
0.197147257038 -0.19575840005 0
0.202776365323 -0.195791979977 0
0.202277443764 -0.180757815151 0
0.199959247766 -0.18229878449 0
0.202899524829 -0.196938444242 0
0.197059934997 -0.196922971503 0
0.198403617288 -0.188975120921 0
0.200734923055 -0.179931926074 0
0.19996785674 -0.184295134305 0
0.199718655988 -0.179204787969 0
0.202401235245 -0.190839244742 0
0.201526930194 -0.189033573102 0
0.198783972133 -0.18687402176 0
0.198215141491 -0.179098339114 0
0.197642061385 -0.180797288551 0
0.202741617285 -0.193299379309 0
0.197131038743 -0.194751428909 0
0.202793999016 -0.194774171815 0
0.201256529612 -0.194256647928 0
0.197515913242 -0.190860448121 0
0.198924078527 -0.186609551884 0
0.199571771893 -0.184967183467 0
0.198583554928 -0.194224797271 0
0.199854309814 -0.195870686614 0
0.201938569923 -0.186941065228 0
0.197946571801 -0.186939366714 0
0.198832947249 -0.189499450187 0
0.200985201629 -0.189461659606 0
0.196432231436 -0.196451006423 0
0.203527443641 -0.196474806641 0
0.199315721437 -0.185167008024 0
0.201024175768 -0.186764696457 0
0.20016210541 -0.185235570672 0
0.201700174821 -0.195437747341 0
0.198795843237 -0.17844173228 0
0.201346150317 -0.190488967964 0
0.203291613327 -0.195887221493 0
0.19664070472 -0.195853975218 0
0.199381012581 -0.190522016653 0
0.199119686133 -0.179679121933 0
0.200516917652 -0.1905253713 0
0.199519590544 -0.184316240321 0
0.200698423868 -0.196365707187 0
0.20085348546 -0.198856400221 0
0.202256454096 -0.190940272924 0
0.198042221148 -0.18949570662 0
0.203281679458 -0.195309977367 0
0.196651966278 -0.195284762587 0
0.203187723344 -0.196148309365 0
0.196759929387 -0.196096772383 0
0.199360214582 -0.181042292873 0
0.202028745279 -0.191346528771 0
0.201858585113 -0.179154943302 0
0.200032992991 -0.177762101717 0
0.19979089969 -0.181056218919 0
0.197024739414 -0.193211975541 0
0.197894622165 -0.191491496114 0
0.198919485172 -0.193937833666 0
0.200985256063 -0.193959359385 0
0.200257763321 -0.187183560587 0
0.200315865232 -0.184048755651 0
0.199508029714 -0.17794699009 0
0.202401573979 -0.197835020746 0
0.197353088736 -0.193850039072 0
0.202551245749 -0.193869422527 0
0.201738707764 -0.189035730485 0
0.197389818641 -0.19762836733 0
0.199188278468 -0.198926493996 0
0.202827836914 -0.192492627191 0
0.198098017511 -0.195578881727 0
0.200239447736 -0.182807422526 0
0.201542908299 -0.1890614391 0
0.201701861281 -0.188652592938 0
0.200376492738 -0.18489912032 0
0.201219654797 -0.187020322858 0
0.198492261124 -0.189121701716 0
0.196843121779 -0.195170892451 0
0.201365897532 -0.180761365232 0
0.201114854044 -0.18210101434 0
0.196891114653 -0.194736388994 0
0.203036982176 -0.194773461484 0
0.198596223711 -0.194424077081 0
0.201311545717 -0.194448583198 0
0.199797946365 -0.18219700272 0
0.202267564749 -0.192632127842 0
0.202285682345 -0.193676385302 0
0.199669958475 -0.18283384444 0
0.198187840475 -0.188710234317 0
0.199485095763 -0.185790563543 0
0.197423141737 -0.192862460758 0
0.197096230155 -0.195472967236 0
0.202828207562 -0.195503282103 0
0.200243879195 -0.198417303539 0
0.200550148252 -0.186328415011 0
0.20051568741 -0.187937632986 0
0.197116989904 -0.192464013395 0
0.200481240971 -0.185745761966 0
0.198476489596 -0.180738407062 0
0.197303286757 -0.192906826185 0
0.20056325863 -0.187176481862 0
0.20088333084 -0.199063256967 0
0.202825323179 -0.182607669069 0
0.199384832741 -0.187944708353 0
0.19915387525 -0.196180302801 0
0.200111166037 -0.181048920638 0
0.199431002704 -0.186449192337 0
0.199827666218 -0.184058826494 0
0.202779534954 -0.184217360148 0
0.197008691734 -0.182605866925 0
0.199385762373 -0.187166159119 0
0.19709881393 -0.184205128285 0
0.199926599108 -0.180398175402 0
0.200091111419 -0.183996001549 0
0.200101238274 -0.178672249147 0
0.203543150405 -0.195943515871 0
0.196395970443 -0.195911994977 0
0.202723963855 -0.181150197029 0
0.202376927862 -0.180027937784 0
0.199714390939 -0.198785659597 0
0.197518143357 -0.180025728974 0
0.197161416142 -0.181188785644 0
0.202601273494 -0.18606346116 0
0.202105729484 -0.187898465981 0
0.200025429095 -0.182394975308 0
0.197280874863 -0.186060483875 0
0.197777952989 -0.187898454872 0
0.203168686888 -0.194831329413 0
0.201435513642 -0.196597254188 0
0.199786634655 -0.186891208276 0
0.20076539853 -0.177911977065 0
0.198595968112 -0.179676420331 0
0.201380668557 -0.178366431401 0
0.200623411901 -0.181236622461 0
0.202940527651 -0.193839721381 0
0.203277811471 -0.195610655618 0
0.196654639306 -0.195581328164 0
0.197652708041 -0.193601196626 0
0.203431477063 -0.195298667493 0
0.19650695088 -0.195275836424 0
0.200329533298 -0.19359071105 0
0.199285741269 -0.185591323397 0
0.200519680916 -0.198764151842 0
0.199485627954 -0.178687932129 0
0.200762937959 -0.188383331391 0
0.200472531332 -0.191716860536 0
0.199417588405 -0.191723429502 0
0.196823394081 -0.194363196344 0
0.200755127531 -0.186123934723 0
0.198279749809 -0.182950079781 0
0.200172111229 -0.183781012867 0
0.202526505461 -0.195625963935 0
0.199910646951 -0.182495617382 0
0.199150051396 -0.186033684769 0
0.201350190801 -0.179784732062 0
0.199949750578 -0.182135497675 0
0.196730149783 -0.194032586024 0
0.199048671253 -0.189753923937 0
0.199532022756 -0.17998900443 0
0.199654349797 -0.190214305117 0
0.199099319849 -0.187881759765 0
0.201842694719 -0.184280774534 0
0.200072436493 -0.190100073813 0
0.199819588919 -0.190100864905 0
0.198042689678 -0.184274172933 0
0.200242652299 -0.186073448342 0
0.200435641271 -0.179594036273 0
0.201923788562 -0.183075382882 0
0.203480982478 -0.195392571228 0
0.196469660004 -0.195347060735 0
0.199192553981 -0.199137661327 0
0.199665682093 -0.183780446443 0
0.203203975654 -0.194023137566 0
0.200193225265 -0.179752689891 0
0.198343431548 -0.178585110032 0
0.197198814237 -0.19512089241 0
0.202723967143 -0.195148070435 0
0.197577635787 -0.195622450744 0
0.202340530727 -0.1956551078 0
0.199099120199 -0.179099901785 0
0.197235158209 -0.192274108553 0
0.20166633182 -0.181968241986 0
0.203107197555 -0.195783052426 0
0.20061902203 -0.185897419756 0
0.198677466891 -0.181689513212 0
0.20310708498 -0.19438449419 0
0.197003712199 -0.195913832473 0
0.202922032833 -0.195949142976 0
0.200725180902 -0.193179714451 0
0.202004686579 -0.191552918851 0
0.201286597546 -0.185804222745 0
0.197431452854 -0.194336080741 0
0.202488671096 -0.194357211025 0
0.198495191123 -0.191567927578 0
0.199900897107 -0.182863016037 0
0.201368678429 -0.191601317729 0
0.200620733717 -0.18518904737 0
0.200611947294 -0.178529305779 0
0.197521564186 -0.191066200175 0
0.198609367153 -0.185829480815 0
0.199288223825 -0.191350187993 0
0.200611212458 -0.191356926791 0
0.201595301232 -0.193090664737 0
0.19854940424 -0.189339409497 0
0.199121267332 -0.199242910159 0
0.198184666482 -0.195031580037 0
0.201727256437 -0.195059932577 0
0.200911691312 -0.179368031727 0
0.20140765515 -0.189494817697 0
0.19847333535 -0.189491796266 0
0.199641696535 -0.184484998723 0
0.199989584715 -0.182923317942 0
0.199359470289 -0.198587212276 0
0.199378641971 -0.18867700542 0
0.198912970875 -0.191717336906 0
0.202632401222 -0.192062876459 0
0.200471300809 -0.190826929515 0
0.200524524714 -0.188734003737 0
0.200267866525 -0.184362539316 0
0.203539566966 -0.195691681137 0
0.196401533691 -0.195665761433 0
0.198844326976 -0.187846656613 0
0.198042350715 -0.193554510024 0
0.201867861567 -0.193561888556 0
0.201961082603 -0.190017155901 0
0.198616495345 -0.193369161856 0
0.201272617485 -0.193371457748 0
0.196277632201 -0.196083166069 0
0.203669876723 -0.196112495565 0
0.198714932358 -0.18696190746 0
0.200953937768 -0.197212091942 0
0.202963026588 -0.193299826232 0
0.2008421092 -0.191835809681 0
0.201378921689 -0.189424178295 0
0.19997995701 -0.182524854467 0
0.199665950125 -0.18564332923 0
0.197788307864 -0.179343040634 0
0.202024653023 -0.192690140683 0
0.203282962181 -0.194516098722 0
0.196652484502 -0.194502434459 0
0.197703140436 -0.192228844856 0
0.197958253703 -0.190002136316 0
0.200303965765 -0.184295629721 0
0.198603138663 -0.190160891279 0
0.199613147262 -0.181344527894 0
0.201560867515 -0.189913955604 0
0.200977273689 -0.189483559127 0
0.199632202215 -0.194722927088 0
0.201091713335 -0.187982616543 0
0.20188124872 -0.180530169349 0
0.201813058088 -0.188943485192 0
0.202879160397 -0.192699265222 0
0.200302132893 -0.19569735203 0
0.198263379273 -0.188526292057 0
0.199624325324 -0.187961547943 0
0.198928139061 -0.197355671514 0
0.198280329454 -0.193119999193 0
0.198554354188 -0.187634335348 0
0.199655931062 -0.183933037468 0
0.198683276041 -0.188101274854 0
0.197861157757 -0.191480447742 0
0.197995130354 -0.18052415298 0
0.197815952582 -0.18151151661 0
0.196808431433 -0.195958523211 0
0.20312044008 -0.195994126332 0
0.203619503115 -0.195912239865 0
0.196327634594 -0.19588910153 0
0.200339299889 -0.177688539036 0
0.200247314732 -0.181013206323 0
0.201324642623 -0.187638821131 0
0.19983005514 -0.182773305271 0
0.202043516111 -0.194609438482 0
0.198562000026 -0.197712479876 0
0.203056316508 -0.193474902996 0
0.200201610521 -0.183690608769 0
0.200048711217 -0.185796086986 0
0.201143523165 -0.187226774679 0
0.198458106812 -0.19015315784 0
0.199118581224 -0.181106227329 0