# vtk DataFile Version 2.0
Generated with Solid Solver
ASCII
DATASET UNSTRUCTURED_GRID
POINTS 999 float 
0.2 4.325 0.0
1.4 4.325 0.0
1.4 4.825 0.0
0.2 4.825 0.0
1.4 4.34523264049 0.0
1.4 4.36751203886 0.0
1.4 4.39204525371 0.0
1.4 4.4190602782 0.0
1.4 4.44880817466 0.0
1.4 4.48156541084 0.0
1.4 4.51763640748 0.0
1.4 4.5573564007 0.0
1.4 4.60109451608 0.0
1.4 4.64925723872 0.0
1.4 4.70229217343 0.0
1.4 4.76069218095 0.0
1.33333333333 4.825 0.0
1.26666666667 4.825 0.0
1.2 4.825 0.0
1.13333333333 4.825 0.0
1.06666666667 4.825 0.0
1.0 4.825 0.0
0.933333333334 4.825 0.0
0.866666666668 4.825 0.0
0.800000000001 4.825 0.0
0.733333333334 4.825 0.0
0.666666666668 4.825 0.0
0.600000000001 4.825 0.0
0.533333333334 4.825 0.0
0.466666666667 4.825 0.0
0.4 4.825 0.0
0.333333333334 4.825 0.0
0.266666666667 4.825 0.0
0.2 4.76069218095 0.0
0.2 4.70229217343 0.0
0.2 4.64925723872 0.0
0.2 4.60109451608 0.0
0.2 4.5573564007 0.0
0.2 4.51763640748 0.0
0.2 4.48156541084 0.0
0.2 4.44880817466 0.0
0.2 4.4190602782 0.0
0.2 4.39204525371 0.0
0.2 4.36751203886 0.0
0.2 4.34523264049 0.0
0.212131543907 4.30926329506 0.0
0.224675715302 4.29385348652 0.0
0.23762369102 4.27878141198 0.0
0.250966423879 4.26405760374 0.0
0.264694484585 4.24969246611 0.0
0.278798324214 4.23569599189 0.0
0.293267939266 4.22207810803 0.0
0.308093289028 4.20884826442 0.0
0.323263842145 4.19601585877 0.0
0.338769084145 4.18358978512 0.0
0.354597997314 4.17157887342 0.0
0.37073960121 4.15999145532 0.0
0.387182441982 4.14883575334 0.0
0.403915091795 4.13811952025 0.0
0.420925712897 4.12785033813 0.0
0.438202430937 4.11803537461 0.0
0.455733079095 4.10868154223 0.0
0.473505374364 4.09979539439 0.0
0.491506842655 4.09138316882 0.0
0.509724826085 4.0834507802 0.0
0.528146580414 4.07600377808 0.0
0.546759103951 4.06904741762 0.0
0.56554943677 4.06258654322 0.0
0.584504260001 4.05662573401 0.0
0.60361041518 4.0511691282 0.0
0.622854334779 4.04622060039 0.0
0.642222678753 4.04178358113 0.0
0.661701681839 4.03786122392 0.0
0.681277836375 4.03445624851 0.0
0.700937245817 4.03157107217 0.0
0.720666255912 4.02920769845 0.0
0.740450894784 4.02736780161 0.0
0.76027736978 4.02605266363 0.0
0.780131702711 4.02526321235 0.0
0.799999999998 4.025 0.0
0.819868297285 4.02526321235 0.0
0.839722630216 4.02605266363 0.0
0.859549105212 4.02736780161 0.0
0.879333744085 4.02920769845 0.0
0.89906275418 4.03157107217 0.0
0.918722163621 4.03445624851 0.0
0.938298318157 4.03786122392 0.0
0.957777321244 4.04178358113 0.0
0.977145665218 4.04622060039 0.0
0.996389584817 4.0511691282 0.0
1.01549574 4.05662573401 0.0
1.03445056323 4.06258654322 0.0
1.05324089605 4.06904741762 0.0
1.07185341958 4.07600377808 0.0
1.09027517391 4.0834507802 0.0
1.10849315734 4.09138316882 0.0
1.12649462563 4.09979539439 0.0
1.1442669209 4.10868154222 0.0
1.16179756906 4.1180353746 0.0
1.1790742871 4.12785033813 0.0
1.1960849082 4.13811952024 0.0
1.21281755802 4.14883575334 0.0
1.22926039879 4.15999145532 0.0
1.24540200269 4.17157887342 0.0
1.26123091585 4.18358978512 0.0
1.27673615785 4.19601585877 0.0
1.29190671097 4.20884826442 0.0
1.30673206073 4.22207810803 0.0
1.32120167579 4.23569599189 0.0
1.33530551541 4.24969246611 0.0
1.34903357612 4.26405760374 0.0
1.36237630898 4.27878141198 0.0
1.3753242847 4.29385348652 0.0
1.38786845609 4.30926329506 0.0
1.05632730172 4.46025283906 0.0
0.549964048968 4.4630053958 0.0
0.806135520676 4.31186690218 0.0
0.603895783049 4.26079310371 0.0
1.22984770884 4.38318704125 0.0
0.3703382852 4.38423552752 0.0
0.995322815839 4.25565031136 0.0
0.728315816804 4.1765935937 0.0
0.872128173905 4.17288724072 0.0
1.14059401893 4.27298468684 0.0
0.461553191009 4.27181671009 0.0
0.784706775856 4.56821390922 0.0
0.398287125272 4.57945970538 0.0
1.20625306554 4.58334743514 0.0
0.624100842742 4.1589824436 0.0
0.5257453845 4.18811776279 0.0
0.978502430793 4.15488737058 0.0
1.07419209812 4.18825154482 0.0
0.364313698077 4.28677035763 0.0
1.23509538257 4.28681716733 0.0
0.68124123937 4.39284548972 0.0
1.31679378691 4.35012066749 0.0
0.283206213094 4.35012066749 0.0
0.791498533126 4.11467141721 0.0
0.931481076052 4.3801344917 0.0
0.966719065571 4.62778042839 0.0
0.684451667517 4.11068036752 0.0
0.618335406951 4.62686910993 0.0
0.450982331762 4.19686171732 0.0
0.915674266355 4.10995633851 0.0
1.14900051594 4.19689012964 0.0
1.30193709687 4.4481448133 0.0
0.298574667609 4.44816296922 0.0
1.05734787542 4.34990107617 0.0
0.539273225177 4.35252599628 0.0
0.709896798149 4.27721026287 0.0
0.895708916005 4.26924194389 0.0
0.813273511364 4.43835766235 0.0
0.559289631452 4.13230879113 0.0
1.04001407307 4.13281539633 0.0
0.801161810585 4.23146244955 0.0
0.665113819616 4.52056650186 0.0
0.852577362173 4.09111846388 0.0
0.390256727869 4.2242806298 0.0
1.20974450479 4.22428104599 0.0
0.921542541183 4.52778058719 0.0
1.14030889032 4.36437344809 0.0
1.15600477272 4.46808538305 0.0
0.435243219029 4.4750581257 0.0
0.462045157798 4.36654654286 0.0
0.735806812738 4.08472269746 0.0
1.30082934537 4.29793772796 0.0
0.299170654625 4.29793772796 0.0
0.533651712118 4.26265983853 0.0
0.666130919144 4.21652131559 0.0
1.0676097303 4.26179469382 0.0
1.08054433577 4.58530946155 0.0
0.506773767255 4.56568295079 0.0
0.626745312844 4.10124420826 0.0
0.933845304214 4.2106954732 0.0
0.293717639664 4.55175000185 0.0
0.312505022079 4.66426411351 0.0
1.3058164124 4.55154930624 0.0
1.29054387065 4.66302765963 0.0
0.973467966326 4.09941619478 0.0
0.487935413164 4.15087084015 0.0
0.461549079751 4.68836834982 0.0
1.11203248746 4.15093503889 0.0
1.14453515393 4.70617370303 0.0
0.840217564202 4.68891146633 0.0
0.585347033288 4.20539048534 0.0
0.619177396637 4.34227576306 0.0
0.331644410315 4.24962190462 0.0
1.26835558968 4.24962190462 0.0
1.01536156978 4.19987473052 0.0
0.809331033562 4.07065709122 0.0
0.982321540791 4.33437358971 0.0
0.725600576914 4.66999651799 0.0
0.812291456186 4.16642942492 0.0
0.335887692543 4.33918235669 0.0
1.26344844681 4.34017131907 0.0
1.23449730504 4.49457441524 0.0
1.34334172095 4.40539551957 0.0
0.256658279045 4.40539551957 0.0
0.741646926828 4.34287908527 0.0
0.674799084703 4.16673768522 0.0
1.18647435526 4.30955189749 0.0
0.360563250283 4.49596479569 0.0
0.873716483853 4.33845499203 0.0
0.418704489949 4.31146264283 0.0
0.492670911224 4.22931614809 0.0
0.403480880356 4.19046776931 0.0
1.19651541215 4.1904686246 0.0
0.728649253738 4.46214546491 0.0
1.00883674467 4.40174664879 0.0
1.11035034557 4.23161841276 0.0
0.261968539765 4.3130079512 0.0
1.33803146023 4.3130079512 0.0
0.74649980488 4.1318354354 0.0
0.927597725248 4.1577597079 0.0
0.892956618256 4.07619338913 0.0
0.659794281787 4.07951387326 0.0
0.587663534405 4.09486537006 0.0
0.942353209926 4.07935300973 0.0
1.01493747319 4.09476013719 0.0
0.613130017774 4.41369803882 0.0
0.449373501074 4.15377191978 0.0
0.514840228377 4.12225850006 0.0
0.497057592 4.41333092106 0.0
1.15061382426 4.15379293084 0.0
1.08514419473 4.12228328152 0.0
0.745617635771 4.23098957592 0.0
0.87523452213 4.59853036549 0.0
0.855262884783 4.2258970831 0.0
1.01126200032 4.53280064162 0.0
1.09391916408 4.40632408872 0.0
1.04436265455 4.71482000827 0.0
0.314320181089 4.38773968607 0.0
1.28649331902 4.38743720145 0.0
0.771211579291 4.06316862024 0.0
0.432259099658 4.24006002157 0.0
0.698583889427 4.07144353526 0.0
1.16802128371 4.238862881 0.0
1.09587629216 4.3086676659 0.0
1.35920470355 4.35666960471 0.0
0.240795296449 4.35666960471 0.0
0.504003580654 4.30815758118 0.0
0.579942709371 4.5342075073 0.0
0.875915224914 4.12815792528 0.0
0.426503136644 4.40717733008 0.0
0.57541416445 4.30365301522 0.0
0.683877978289 4.33161848113 0.0
0.888061695889 4.44633509246 0.0
0.26012287522 4.49859249103 0.0
1.33987712478 4.49859249103 0.0
0.801393572636 4.37060096582 0.0
0.558460082533 4.72496728209 0.0
1.1741923373 4.41132830101 0.0
0.83220012886 4.12779415912 0.0
1.02815069622 4.30053276509 0.0
0.948308583502 4.2880204454 0.0
0.846588933095 4.50834596945 0.0
0.343666800815 4.43485820652 0.0
1.25632767671 4.43480360053 0.0
0.97849585731 4.47031535602 0.0
1.10170977548 4.51507265998 0.0
0.662193131828 4.26809398492 0.0
0.400503668388 4.26881657105 0.0
1.20117145985 4.26130427377 0.0
0.350957892513 4.21796558019 0.0
1.24904210749 4.21796558019 0.0
0.771964652188 4.18905379403 0.0
0.932165148285 4.72736281402 0.0
0.373672364094 4.73321357765 0.0
0.760245937722 4.28409350779 0.0
0.848718469252 4.05767763075 0.0
1.23385612561 4.7358294747 0.0
0.846421485813 4.28065918421 0.0
0.651597058631 4.13043284014 0.0
0.650489852552 4.72138045504 0.0
0.58457834847 4.16375088261 0.0
0.48701309933 4.18859927013 0.0
0.708495738406 4.58856947756 0.0
1.11203398596 4.18878062515 0.0
0.54865558244 4.10250047869 0.0
1.05126102377 4.10234629471 0.0
0.300013757486 4.26259646442 0.0
1.29998624251 4.26259646442 0.0
0.9465032388 4.12718070354 0.0
0.708587583337 4.14146095907 0.0
0.973348904468 4.19537871864 0.0
0.628721855632 4.19538356945 0.0
0.380175010018 4.34021880077 0.0
0.662092932411 4.45899041267 0.0
1.05133526787 4.22221992007 0.0
0.528087045766 4.64327882187 0.0
1.22233124543 4.33521693908 0.0
1.19001193434 4.36273586668 0.0
0.853024099244 4.39544003492 0.0
0.542800296246 4.22324366905 0.0
0.247706318737 4.45239119247 0.0
1.35229368126 4.45239119247 0.0
0.599153768578 4.12953797005 0.0
1.01616570494 4.16227683178 0.0
0.744705786938 4.40569544575 0.0
1.31929001115 4.73702550052 0.0
0.777615355331 4.15113602511 0.0
1.33132411895 4.60631378639 0.0
0.265621610877 4.60975488866 0.0
0.532023338888 4.15374454388 0.0
1.0697792195 4.15241429251 0.0
0.286371037106 4.73010312914 0.0
0.497725885905 4.50153668256 0.0
0.46053455822 4.31587947599 0.0
0.433799237968 4.54629400991 0.0
0.388624781906 4.65094200004 0.0
0.554823673752 4.40451940232 0.0
1.1421595646 4.31818301431 0.0
1.14760043966 4.61655103139 0.0
1.21258698805 4.65320200685 0.0
1.16279096046 4.53292621409 0.0
0.995762647814 4.12508772517 0.0
0.456229040627 4.61456685246 0.0
0.707289391156 4.21520271873 0.0
0.763036833302 4.74285445535 0.0
0.78386198569 4.49787013126 0.0
[...]
POINT_DATA 999
VECTORS Displacement float
-0.000702029727738 -0.0792763374215 0
0.000707645279247 -0.0792724230103 0
0.0 -0.08 0
0.0 -0.08 0
0.00074761260218 -0.0792687412874 0
0.00078653899164 -0.079263194771 0
0.000821205240714 -0.079255979141 0
0.00084972147059 -0.0792505591848 0
0.000864713740839 -0.0792490517776 0
0.000871254392682 -0.0792536378833 0
0.000856787542692 -0.0792663104504 0
0.000819126434826 -0.0792894639436 0
0.000754602396575 -0.0793323814718 0
0.000652073674289 -0.0794012822066 0
0.000507223500958 -0.0795111565588 0
0.000303081644257 -0.0796861997256 0
0.0 -0.08 0
0.0 -0.08 0
0.0 -0.08 0
0.0 -0.08 0
0.0 -0.08 0
0.0 -0.08 0
0.0 -0.08 0
0.0 -0.08 0
0.0 -0.08 0
0.0 -0.08 0
0.0 -0.08 0
0.0 -0.08 0
0.0 -0.08 0
0.0 -0.08 0
0.0 -0.08 0
0.0 -0.08 0
0.0 -0.08 0
-0.000300105911243 -0.0796892155929 0
-0.000503440720989 -0.0795153738765 0
-0.000653509152617 -0.0794050738721 0
-0.000752330801813 -0.0793352578384 0
-0.0008156767246 -0.0792922567412 0
-0.000853244275853 -0.079269265789 0
-0.000867372217884 -0.0792570560549 0
-0.000860391995238 -0.0792527236047 0
-0.000845008448184 -0.0792543716862 0
-0.000816180410784 -0.0792598591678 0
-0.000781265462633 -0.0792670970308 0
-0.000742147266902 -0.0792726532855 0
-0.000669081792481 -0.0792557654724 0
-0.000632858228588 -0.0792334253385 0
-0.000593500541203 -0.0792075836037 0
-0.000550349212075 -0.0791781597216 0
-0.000503783493788 -0.0791439527061 0
-0.000454963572194 -0.0791041158683 0
-0.00040355275626 -0.0790593803293 0
-0.000347791794607 -0.0790091500101 0
-0.000288866099969 -0.0789501295295 0
-0.000229046005856 -0.0788866856932 0
-0.000166022191708 -0.0788150051712 0
-9.87942884499e-05 -0.0787354368724 0
-3.04332417527e-05 -0.0786458190495 0
4.11458016501e-05 -0.0785472616215 0
0.000115095579341 -0.0784384011551 0
0.000192396424073 -0.078317262789 0
0.000270746651916 -0.0781825462968 0
0.00035473138773 -0.0780334789612 0
0.00043872063615 -0.0778665237803 0
0.000529145352165 -0.077677968778 0
0.000617988399352 -0.0774658520054 0
0.000718918523283 -0.0772221324542 0
0.000815422800396 -0.0769355704795 0
0.000925779887081 -0.0765823978495 0
0.00103396737244 -0.0760937024824 0
0.00109145016151 -0.0755814035879 0
0.0010929427988 -0.0751099847933 0
0.00104681975162 -0.0746810795236 0
0.000971512316332 -0.0743132240372 0
0.000858039048433 -0.0739871496983 0
0.000724021374041 -0.0737233682523 0
0.000560870873618 -0.0735105134644 0
0.000390570619985 -0.0733601531388 0
0.000210618793554 -0.0732719421389 0
1.15806320408e-05 -0.0732372959627 0
-0.000187159677561 -0.0732658429218 0
-0.000376515962656 -0.0733574203106 0
-0.000550968734937 -0.0735060879425 0
-0.000709137877711 -0.0737150147735 0
-0.000845883531272 -0.0739806995491 0
-0.000963512563325 -0.074305186384 0
-0.00104703825565 -0.0746851867251 0
-0.00108385391827 -0.0751027542382 0
-0.00108366989103 -0.0755672940387 0
-0.00102653571989 -0.0760857701375 0
-0.00092006379851 -0.0765769469994 0
-0.00080972102009 -0.0769309638195 0
-0.000711966714185 -0.0772168232674 0
-0.000611242740664 -0.0774604292258 0
-0.000522209487724 -0.0776731163384 0
-0.000431893574613 -0.0778618896585 0
-0.000347997320232 -0.0780290521065 0
-0.000264044210527 -0.0781782955427 0
-0.000185739864779 -0.0783131265371 0
-0.000108488094555 -0.0784343622951 0
-3.45942532111e-05 -0.0785433039874 0
3.6920371354e-05 -0.078641936726 0
0.00010521287267 -0.0787316411584 0
0.000172391787269 -0.0788113030596 0
0.00023538157309 -0.0788830651842 0
0.00029518581043 -0.0789465677647 0
0.000354084033923 -0.0790056142002 0
0.000409791906346 -0.0790558251442 0
0.00046112870439 -0.0791005368466 0
0.000509873789998 -0.079140342349 0
0.00055635777222 -0.0791745049174 0
0.000599418498816 -0.0792038758355 0
0.000638680174686 -0.0792296605848 0
0.000674806084467 -0.0792519331065 0
0.000664750584492 -0.0784435948896 0
-0.000649133143736 -0.0784354588311 0
2.34044388729e-05 -0.0765419532676 0
-0.00053889649321 -0.0770653988001 0
0.000799301773305 -0.0788780038318 0
-0.000794401987814 -0.0788818653316 0
0.000537213433303 -0.0770224934714 0
-0.00016505489512 -0.0752877136588 0
0.000163223643275 -0.0752476546904 0
0.000612061830587 -0.0782625483179 0
-0.000603473573511 -0.0782492107689 0
-3.69544256666e-05 -0.0785972089306 0
-0.000678821431093 -0.0792710258747 0
0.000676840503279 -0.0792879007249 0
-0.000235459887278 -0.0762376458158 0
-0.000326135398778 -0.0775676289149 0
0.000218527236542 -0.0762482508466 0
0.000334466007904 -0.0775615088814 0
-0.000622645238995 -0.078798157911 0
0.000628387894628 -0.0787918947944 0
-0.000398583129621 -0.0775063585646 0
0.000759886062206 -0.0791021815134 0
-0.000754439584771 -0.0791055298976 0
7.80963608539e-06 -0.0742891418442 0
0.000442156188153 -0.0774593463092 0
0.000324578525193 -0.0790833357705 0
6.83222509479e-05 -0.0749995797137 0
-0.000350844564531 -0.0790986089474 0
-0.000316385467458 -0.0782379243068 0
-6.4932961133e-05 -0.0749874838377 0
0.000323389175327 -0.0782337633847 0
0.000850444710734 -0.0791504766314 0
-0.000845936229825 -0.0791527774812 0
0.000689219803376 -0.0779501890691 0
-0.000688286018309 -0.0779844751921 0
-0.000316312617376 -0.0764253493084 0
0.000335072319781 -0.0763791676037 0
4.7074548759e-05 -0.0776605319382 0
-8.61106920878e-06 -0.0770735168753 0
2.18473923255e-05 -0.0770580988986 0
5.14355690291e-06 -0.0756957347417 0
-0.000367337747515 -0.0784180369924 0
-0.000108283637859 -0.0741591384136 0
-0.000417841821952 -0.0786392775154 0
0.000424046668583 -0.0786356513651 0
0.000330645196118 -0.0784363802207 0
0.000757553652504 -0.0784634120613 0
0.00077154674549 -0.0788282754111 0
-0.000772867139797 -0.0788778920064 0
-0.000752141695529 -0.0784595493855 0
0.00017399337035 -0.0741705728438 0
0.000650181534819 -0.0790404033488 0
-0.000644378764204 -0.0790438269769 0
-0.000586739191113 -0.0776842283778 0
-0.000373407259159 -0.0761875170797 0
0.000590228270066 -0.0776885252723 0
0.000553607039521 -0.0790686879515 0
-0.000597207555096 -0.0790144953528 0
0.000187201371029 -0.0758380966876 0
0.000367375954272 -0.0761338160419 0
-0.000786191337109 -0.0793159965521 0
-0.00054290077885 -0.0795646658641 0
0.000789829247527 -0.0793133765338 0
0.000550791426526 -0.0795600505388 0
-0.000200420644247 -0.0758206700322 0
-6.97350987203e-05 -0.0779073395025 0
-0.000397971024688 -0.0795483730751 0
7.70659331005e-05 -0.0779026282062 0
0.000359482914876 -0.0796155069545 0
6.36571920403e-05 -0.0793277214988 0
-0.000428213888573 -0.0769663416775 0
-0.000566383101757 -0.0774505724225 0
-0.000502763024328 -0.0789190458893 0
0.000508877586926 -0.0789155716149 0
0.000414649745941 -0.076942881141 0
-3.33973709106e-05 -0.0737472867272 0
0.000571212349614 -0.0774085780748 0
-0.000127185881317 -0.079235799992 0
2.78102373687e-05 -0.0749372328825 0
-0.000737473636421 -0.0789467985225 0
0.000744567550004 -0.0789421481077 0
0.000808725172745 -0.0791055083431 0
0.000834304978588 -0.079181152765 0
-0.000829450687579 -0.0791845459825 0
-0.000212082481067 -0.0769108450013 0
-0.000230721159695 -0.0756603017803 0
0.000689843122498 -0.0785849450077 0
-0.000808659038006 -0.0791206348206 0
0.000270909249925 -0.0769135471134 0
-0.000688659844287 -0.0785651731869 0
-0.000482969993881 -0.0779458841625 0
-0.000265133108093 -0.0785537505859 0
0.000271586822874 -0.0785497106063 0
-0.000223527678586 -0.0779038440437 0
0.000615318080329 -0.0779451666754 0
0.000496078413745 -0.0779702819256 0
-0.000678666388429 -0.0791485436168 0
0.00068434472903 -0.0791449819349 0
-2.79012238217e-05 -0.0746560768348 0
0.000207925902626 -0.0755988894889 0
-0.000306528824009 -0.074348287558 0
0.000398925142602 -0.0750683511818 0
0.00031192292213 -0.076556838774 0
-0.000395573795921 -0.0751009338948 0
-0.00030907068675 -0.0765987574565 0
-0.000562046076408 -0.0779190933135 0
-6.66216506662e-05 -0.0782354771657 0
0.000132625808219 -0.0776265649213 0
-0.000740286395204 -0.0784427110204 0
7.34231348762e-05 -0.0782311743703 0
-0.000125732042351 -0.077621282383 0
-0.000179461712381 -0.0757994688351 0
0.000172874483472 -0.0788181860285 0
0.000184733469277 -0.0757459978461 0
0.000516263249384 -0.0786661488655 0
0.000735078108865 -0.0783726246983 0
0.000274365865817 -0.0795734551469 0
-0.000805976135307 -0.0790538048412 0
0.00081086006117 -0.0790524521726 0
0.000144939294372 -0.0737113271185 0
-0.000494050090763 -0.0784009995225 0
0.000389731730399 -0.0744070986242 0
0.000495174180993 -0.0783975912791 0
0.000679804508746 -0.0780435816369 0
0.000770906845872 -0.0791941369337 0
-0.000765545763258 -0.0791977322719 0
-0.000674376388129 -0.0780471344333 0
-0.000527164937566 -0.0786979426839 0
3.63883503123e-05 -0.074764341933 0
-0.000790892157886 -0.0787216628161 0
-0.000620299405896 -0.077522822991 0
-0.00040385550504 -0.0770238523261 0
0.000286701676185 -0.0778153405701 0
-0.000848497960039 -0.0792545601609 0
0.00085165969771 -0.0792519122196 0
7.14202713418e-06 -0.077089049895 0
-0.000249209698792 -0.0796119969776 0
0.000795447716789 -0.0787331800778 0
1.64623171679e-05 -0.0745018655824 0
0.000626344445521 -0.0775296821069 0
0.000483404411182 -0.0768663715582 0
0.000138773859896 -0.0782044815664 0
-0.000829975399776 -0.0790402079499 0
0.00083451564447 -0.079037221403 0
0.000510416367615 -0.0782245163113 0
0.000674966681998 -0.0788285903012 0
-0.000442531261055 -0.0766433128958 0
-0.0005787620078 -0.0786104366874 0
0.000561154776256 -0.078609783021 0
-0.000384522548985 -0.0788328566436 0
0.00039083733169 -0.0788292635404 0
-7.35477469451e-05 -0.0752370585406 0
0.000149382207095 -0.0795618392126 0
-0.000309956897604 -0.079743896247 0
-0.000145630759607 -0.0763101513191 0
-0.000259140485889 -0.0737462915883 0
0.00030348925609 -0.0797527423272 0
0.000172251610794 -0.0762912897302 0
-6.71197151258e-05 -0.0756373969805 0
-0.00017459776992 -0.0795431035138 0
-0.000247332576549 -0.0768048084195 0
-0.000298408319191 -0.0779396224564 0
-0.000211784512524 -0.0787743614919 0
0.000307182206777 -0.0779277045693 0
0.000292397155998 -0.0771998417581 0
-0.000285355852614 -0.077192747063 0
-0.000544120432564 -0.079036257467 0
0.000550157975863 -0.0790327514824 0
5.10943447583e-05 -0.0755788578811 0
-9.21124796322e-05 -0.0750573148141 0
0.000384337535126 -0.0764350339792 0
-0.000376626978214 -0.0764157759452 0
-0.00073877427768 -0.0787829072096 0
-0.000415569137916 -0.0780307637205 0
0.000484699907888 -0.0774127769753 0
-0.000442204139839 -0.0792994807513 0
0.000736278150284 -0.0787831610828 0
0.000770581166851 -0.0786895633543 0
0.000188948878561 -0.0773510517936 0
-0.000480709722283 -0.0774795116981 0
-0.000858292732632 -0.0792229609585 0
0.000862466144003 -0.0792196766273 0
-3.78190360157e-05 -0.0764629567123 0
0.000247260943559 -0.0768051610362 0
-0.000190182461828 -0.0774394017232 0
0.00032533875396 -0.0797464198372 0
-3.05530414642e-05 -0.0747649160964 0
0.000711362908328 -0.0794155062138 0
-0.000703903880016 -0.0794239626086 0
-0.000133517612917 -0.0774493138611 0
0.000129558727565 -0.0774627303196 0
-0.000343565343967 -0.0797322139135 0
-0.000687469234498 -0.0787783743446 0
-0.00069477409106 -0.0783419232002 0
-0.000702354128816 -0.07910499045 0
-0.000535097169944 -0.0794946330128 0
-0.00067074897637 -0.078136595234 0
0.000704560322836 -0.0783592732067 0
0.000568024892249 -0.0793071747774 0
0.000532058652119 -0.0795007982324 0
0.000719553978562 -0.0790517530129 0
1.67688923081e-05 -0.0763536507943 0
-0.000565901053591 -0.0792958214713 0
-0.00027813340665 -0.0758442255921 0
-3.83354612083e-05 -0.0796120400947 0
-4.62350420232e-05 -0.0781144635089 0
0.000432327610463 -0.0770765435008 0
-0.000112074091745 -0.0784441311354 0
0.000274793423866 -0.0757919258548 0
0.000118699932055 -0.0784400540364 0
0.000832665614536 -0.0791999674746 0
0.00034245608881 -0.0739143377826 0
-0.00060985520677 -0.0789392775084 0
0.000615714788779 -0.0789358590604 0
-0.000282124389891 -0.0787236314655 0
0.000288481306175 -0.0787198641376 0
-0.000531509006638 -0.0783059343067 0
-0.000772880245093 -0.0786971865375 0
7.01091232248e-05 -0.0740997357148 0
-0.000231722471184 -0.0784369644264 0
-0.000518685998052 -0.0787761415471 0
0.000524834172498 -0.0787722679002 0
-0.000828991897332 -0.079194839838 0
0.000814246706357 -0.0789428866196 0
0.000459564189792 -0.0765903582567 0
-0.00060699665433 -0.0791206835624 0
0.000612887519948 -0.0791171303037 0
0.000404048520117 -0.0793911058892 0
-0.00080696233781 -0.0789413714682 0
-0.000717623873662 -0.0792070077339 0
0.000723185022243 -0.0792033403144 0
0.000485376882711 -0.0758077978574 0
0.000116944213158 -0.0753734063509 0
0.000680489629655 -0.0793994955936 0
-0.000680438108169 -0.0794007610426 0
-0.000588980598846 -0.0779847940415 0
7.66099083046e-05 -0.0746352759593 0
1.26958654046e-05 -0.0760362599043 0
-3.01652181859e-05 -0.0741170365494 0
0.000729437117094 -0.0782245776381 0
0.000597590872145 -0.0779906819 0
-0.000529836799442 -0.0770997175255 0
-0.000522455746416 -0.0745059140911 0
-0.000454838226342 -0.0758068355144 0
0.00073147590986 -0.0786613878398 0
-0.000724647593602 -0.0790416312272 0
0.00073031369868 -0.0790381242027 0
0.000347429292542 -0.0787450788514 0
-0.000725199587724 -0.0782347862462 0
-0.000552405178442 -0.0772782494406 0
0.000289331451561 -0.0771792251878 0
-0.000378228473067 -0.0787450278998 0
-3.55889774095e-05 -0.0790837659022 0
8.64869065049e-05 -0.0779998993525 0
-7.94391191573e-05 -0.077995316507 0
-0.000476154195492 -0.07819489175 0
0.000465873942209 -0.0781930056001 0
-0.000816990202646 -0.0793090802968 0
0.000820305173119 -0.0793064024399 0
-0.000479445137491 -0.0767453632214 0
0.000561231064373 -0.0773235064231 0
-0.000313645503395 -0.0772378336708 0
0.000444817621612 -0.0790344374106 0
-0.000379962078413 -0.0739554403454 0
0.000436416294327 -0.0778785206784 0
0.000810614567628 -0.0792138308092 0
-0.000805504029552 -0.0792174447677 0
-0.000345786418457 -0.0784314554285 0
-0.000103165533856 -0.074506121087 0
0.000352315999031 -0.0784273521144 0
-0.000361358861891 -0.0762431288538 0
0.000187376152727 -0.079204561756 0
0.000208149905535 -0.0797657595136 0
0.000684519993346 -0.0781412835368 0
-0.000638015722557 -0.077800559965 0
0.000812228509535 -0.0791189315587 0
-0.000807113303904 -0.0791222519051 0
0.000760839203199 -0.0792509933241 0
-0.000761128584186 -0.0792465294043 0
9.93816153799e-05 -0.0751568648752 0
0.000633504099292 -0.0784623978742 0
0.000615396744781 -0.0746157727847 0
4.64054819956e-05 -0.07350570491 0
8.04495681159e-05 -0.0749154281704 0
-0.000768392454364 -0.0786781697758 0
-0.000621410687169 -0.0784978215005 0
-0.000413728259162 -0.0789316741143 0
0.000419996826313 -0.0789281354098 0
0.00012701625097 -0.0769245419127 0
0.000355872890832 -0.0761611122188 0
-0.000152222529826 -0.0735945435614 0
0.000544965783639 -0.0795623120714 0
-0.000691038042442 -0.0788942039785 0
0.000693774602889 -0.0788914626186 0
0.000618224330831 -0.077671544384 0
-0.000587952778955 -0.079527963542 0
-0.000195496987842 -0.079780524094 0
0.000772412806316 -0.0785525752146 0
-0.000482165935607 -0.0790765541119 0
-0.000285781697592 -0.0760467546374 0
0.000551204684784 -0.0776037125572 0
0.000649172073438 -0.0777758915083 0
0.000461962310562 -0.0767748336931 0
0.000570457521689 -0.0772010203118 0
-0.000508960460651 -0.0775911134145 0
-0.00076375874228 -0.07906347247 0
0.000138479120416 -0.0754105367755 0
-5.81333521493e-05 -0.0761079678986 0
-0.000768361592538 -0.0790337105049 0
0.000773513031395 -0.0790330296643 0
-0.000469218285202 -0.0790041172827 0
0.000475376254203 -0.0790006023597 0
0.000236142268742 -0.0755417998646 0
0.000654951152821 -0.0786877251305 0
0.000615744591973 -0.0786875761207 0
0.000293148188449 -0.0760431504263 0
-0.000648435683263 -0.0777893932208 0
-0.0002445549544 -0.076559257324 0
-0.000690772139761 -0.0787217491206 0
-0.000727301360859 -0.0791600811108 0
0.000732821447347 -0.0791565597487 0
6.45408365262e-05 -0.0796554082149 0
-0.000196566547767 -0.0776939278938 0
-0.000174450535115 -0.0780652038572 0
-0.000766209158084 -0.0785520979513 0
0.00027849598508 -0.0765584657142 0
-0.000146988943523 -0.0754103413254 0
-0.000714522479978 -0.078575331984 0
0.000452450759461 -0.0776801893869 0
0.000209600577483 -0.0798113093089 0
0.000471773794739 -0.0769818141522 0
0.00018327645823 -0.0780614594813 0
-0.000219029798981 -0.0791671525359 0
-7.71986798047e-05 -0.0749186034449 0
0.000221184429128 -0.0777076079784 0
-9.70486063804e-05 -0.0759715468417 0
0.000349298235696 -0.0774796664982 0
-0.000479071008105 -0.076986191091 0
-0.000434491196832 -0.0776926044441 0
-0.000341999910674 -0.0774742823526 0
7.65918527425e-06 -0.0746003871627 0
0.000113877708983 -0.0759538065861 0
4.50171251582e-05 -0.0738828395838 0
0.000851500224079 -0.0792190688724 0
-0.000846892033782 -0.079222529437 0
0.000607318749945 -0.0762424998693 0
0.000682828589937 -0.075372638046 0
-7.25155578702e-05 -0.0797377552831 0
-0.000668094000487 -0.0753562931405 0
-0.000591660643648 -0.0762539145301 0
0.000231613663069 -0.0778864404932 0
0.000101920772195 -0.078176121934 0
-0.000243983606705 -0.0756048022154 0
-0.00022465143041 -0.077881721248 0
-9.5100018819e-05 -0.078171793206 0
0.000786520664942 -0.0789983567269 0
0.000368262446599 -0.0792819244968 0
-7.43593863324e-05 -0.0768383169459 0
0.000330883201993 -0.0736315885943 0
-0.000264128554991 -0.07470652768 0
0.000540605645421 -0.0740047614531 0
-0.00010117703052 -0.0753277419601 0
0.000766467949624 -0.0788697735939 0
0.000809612285516 -0.0791690179401 0
-0.000804491423768 -0.0791724569273 0
-0.000618002581478 -0.0786754318243 0
0.00083776551585 -0.0791128845485 0
-0.000833030164232 -0.0791159917775 0
9.89718852434e-05 -0.078557926681 0
-0.000497351025525 -0.0769947689298 0
0.000132423846428 -0.0797369741259 0
-0.00011026988868 -0.0739214990585 0
0.000299446093929 -0.0772970569646 0
-0.000156362910866 -0.0786308326944 0
0.000162819893454 -0.078626941312 0
-0.000785327375056 -0.078964256849 0
0.00040402613863 -0.076753368531 0
-4.6646967225e-05 -0.076747980755 0
-0.000331307763863 -0.0765717127671 0
0.000631897898764 -0.0791194190049 0
-0.000158491249098 -0.0754751008697 0
-0.00041062315289 -0.0767442215044 0
0.000278421312924 -0.0748013749549 0
2.00711707694e-05 -0.0752806565822 0
-0.000810078808356 -0.0788799102882 0
-0.00030616090572 -0.0776544736141 0
2.13032554817e-07 -0.0745136056072 0
-0.000101895635386 -0.0777352318677 0
-0.000336709055193 -0.077181814699 0
0.000102418833464 -0.0773332852699 0
-0.000225458857579 -0.0784025749685 0
0.0002321594195 -0.0783984718712 0
-9.50740501082e-05 -0.0773274403576 0
0.000142371136862 -0.0766080857932 0
5.43866696649e-05 -0.0743530866318 0
0.000148114096931 -0.0769115292208 0
0.000840841856392 -0.0791215189348 0
-0.000836699003364 -0.079119712948 0
-0.000190172837582 -0.0798267747988 0
0.000326865217947 -0.0765930868907 0
0.00081387858953 -0.078872793821 0
1.38871854942e-05 -0.0743619913769 0
-0.000560066285831 -0.0741683291271 0
-0.000710669967379 -0.0791037019015 0
0.000716200143524 -0.0791002580113 0
-0.000643958437374 -0.0791878585245 0
0.000649750267619 -0.0791842013881 0
-0.000181790665443 -0.0742088818032 0
-0.000743041786807 -0.0785783253468 0
0.000118654321512 -0.0762752203539 0
0.000752192861394 -0.079178338532 0
0.000503461112237 -0.0771531741668 0
1.12788948912e-05 -0.0759028309647 0
0.000790456878134 -0.0789617724586 0
-0.000742067856378 -0.0792313151101 0
0.000747531524931 -0.079227576345 0
0.000212668208741 -0.0784706572415 0
0.000596172680505 -0.0782051046821 0
-4.02718255061e-05 -0.0776736667832 0
-0.000672584268246 -0.0789780400706 0
0.000678329091802 -0.0789745525962 0
-0.000499869650014 -0.0785550723804 0
-8.2302975694e-05 -0.0755605466453 0
0.000497275893609 -0.0785574283853 0
0.000428980046544 -0.0765512204614 0
0.000206373668826 -0.0738912131274 0
-0.000716606439879 -0.0782146303367 0
4.93589164968e-05 -0.0776745531143 0
-0.000354862775213 -0.0785543244657 0
0.000361157515401 -0.0785501768292 0
0.000453047229671 -0.0784996620838 0
-0.00054234679383 -0.0781114544636 0
-0.000198394499867 -0.0798493176355 0
-0.000540105117468 -0.0790969141405 0