# vtk DataFile Version 2.0
Generated with Solid Solver
ASCII
DATASET UNSTRUCTURED_GRID
POINTS 407 float 
-1.0 -1.5 0.0
1.0 -1.5 0.0
1.0 -1.1 0.0
0.0 -1.1 0.0
-1.0 -1.1 0.0
-0.9 -1.5 0.0
-0.800000000001 -1.5 0.0
-0.700000000001 -1.5 0.0
-0.600000000001 -1.5 0.0
-0.500000000001 -1.5 0.0
-0.400000000002 -1.5 0.0
-0.300000000002 -1.5 0.0
-0.200000000002 -1.5 0.0
-0.100000000002 -1.5 0.0
-2.75224287805e-12 -1.5 0.0
0.0999999999975 -1.5 0.0
0.199999999998 -1.5 0.0
0.299999999998 -1.5 0.0
0.399999999998 -1.5 0.0
0.499999999999 -1.5 0.0
0.599999999999 -1.5 0.0
0.699999999999 -1.5 0.0
0.799999999999 -1.5 0.0
0.9 -1.5 0.0
1.0 -1.4 0.0
1.0 -1.3 0.0
1.0 -1.2 0.0
0.905928217587 -1.1 0.0
0.820263453774 -1.1 0.0
0.742254398973 -1.1 0.0
0.671216872589 -1.1 0.0
0.606527842479 -1.1 0.0
0.547619945734 -1.1 0.0
0.493976558471 -1.1 0.0
0.445127166321 -1.1 0.0
0.400643361094 -1.1 0.0
0.360134998043 -1.1 0.0
0.323246790224 -1.1 0.0
0.289655219404 -1.1 0.0
0.259065667063 -1.1 0.0
0.231209843304 -1.1 0.0
0.205843446954 -1.1 0.0
0.182743998166 -1.1 0.0
0.16170890826 -1.1 0.0
0.142553685229 -1.1 0.0
0.125110329238 -1.1 0.0
0.109225856428 -1.1 0.0
0.0947609495665 -1.1 0.0
0.0815887446868 -1.1 0.0
0.0695937145777 -1.1 0.0
0.0586706603407 -1.1 0.0
0.048723779798 -1.1 0.0
0.0396658337903 -1.1 0.0
0.0314173808273 -1.1 0.0
0.0239060768398 -1.1 0.0
0.0170660443381 -1.1 0.0
0.0108372925648 -1.1 0.0
0.00516519398994 -1.1 0.0
-0.00516519398993 -1.1 0.0
-0.0108372925647 -1.1 0.0
-0.0170660443381 -1.1 0.0
-0.0239060768397 -1.1 0.0
-0.0314173808272 -1.1 0.0
-0.0396658337902 -1.1 0.0
-0.0487237797978 -1.1 0.0
-0.0586706603405 -1.1 0.0
-0.0695937145775 -1.1 0.0
-0.0815887446865 -1.1 0.0
-0.0947609495661 -1.1 0.0
-0.109225856428 -1.1 0.0
-0.125110329238 -1.1 0.0
-0.142553685229 -1.1 0.0
-0.161708908259 -1.1 0.0
-0.182743998165 -1.1 0.0
-0.205843446953 -1.1 0.0
-0.231209843303 -1.1 0.0
-0.259065667061 -1.1 0.0
-0.289655219402 -1.1 0.0
-0.323246790221 -1.1 0.0
-0.360134998041 -1.1 0.0
-0.400643361091 -1.1 0.0
-0.445127166318 -1.1 0.0
-0.493976558467 -1.1 0.0
-0.547619945731 -1.1 0.0
-0.606527842476 -1.1 0.0
-0.671216872587 -1.1 0.0
-0.742254398972 -1.1 0.0
-0.820263453773 -1.1 0.0
-0.905928217586 -1.1 0.0
-1.0 -1.2 0.0
-1.0 -1.3 0.0
-1.0 -1.4 0.0
-0.00339355829943 -1.29556895644 0.0
-0.196912220984 -1.28956897041 0.0
0.188837994897 -1.28838045821 0.0
-0.00258259699496 -1.20005002355 0.0
0.101993402997 -1.20441695995 0.0
-0.105191458318 -1.19630234765 0.0
0.380389179569 -1.28510227616 0.0
-0.381856294381 -1.28323611984 0.0
0.0479684171092 -1.15838170444 0.0
-2.31149289229e-05 -1.14680836359 0.0
-0.0536972200692 -1.15093779372 0.0
-0.193164863752 -1.1939425788 0.0
0.191283434179 -1.19695753022 0.0
0.577073894107 -1.29470369569 0.0
-0.577073894103 -1.29469199245 0.0
-0.101993402997 -1.14785122574 0.0
0.020486060589 -1.12955783801 0.0
-0.00290651272538 -1.12380450444 0.0
-0.0278953984958 -1.12643199813 0.0
0.0874989711273 -1.14740340153 0.0
-0.150891910472 -1.15001019056 0.0
-0.310443384135 -1.2053802705 0.0
0.273860917988 -1.17486841587 0.0
0.133832007234 -1.14483071405 0.0
0.778317850003 -1.29589910064 0.0
-0.778317655617 -1.2958991784 0.0
0.0424219918094 -1.12139730959 0.0
-0.464259164123 -1.21857410462 0.0
0.470037252289 -1.2120582049 0.0
-0.0761792463972 -1.13016333696 0.0
-0.0931047133916 -1.29398579638 0.0
0.386430341627 -1.1909731548 0.0
0.00751933893698 -1.11365442246 0.0
-0.244524669244 -1.1549619446 0.0
0.0926266176505 -1.30406204634 0.0
-0.0148786758415 -1.1143555944 0.0
-0.384327804165 -1.16975639851 0.0
-0.053725773014 -1.12167998107 0.0
0.0532172951672 -1.22032956712 0.0
-0.194293722559 -1.14131556728 0.0
0.172226453213 -1.13762272946 0.0
0.221336050459 -1.14552235988 0.0
-0.0524006038363 -1.20164091124 0.0
0.0667547732406 -1.11922393539 0.0
-0.00217300784687 -1.11080876585 0.0
0.020486060589 -1.11215314478 0.0
0.290305703628 -1.37388864806 0.0
0.281850719989 -1.26224840804 0.0
-0.292402399754 -1.37476825374 0.0
0.68441946515 -1.22221494091 0.0
-0.684420288522 -1.22221209449 0.0
-0.0495577436163 -1.39482321149 0.0
-0.0270721180017 -1.17216748226 0.0
0.0507562379678 -1.38471201716 0.0
0.155074418569 -1.38878597318 0.0
0.474657007875 -1.37336955706 0.0
-0.474762485448 -1.37340466944 0.0
0.577073894107 -1.19512401372 0.0
-0.577073894103 -1.19511802818 0.0
0.101772198968 -1.12348574686 0.0
-0.152109762736 -1.38433622034 0.0
-0.0251657874515 -1.25288046114 0.0
-0.155901400984 -1.24439789591 0.0
-0.112936844846 -1.12838437888 0.0
-0.0351158399213 -1.11335815716 0.0
-0.67430463455 -1.37333504061 0.0
0.673396502419 -1.37285090506 0.0
-0.243996846157 -1.25449095433 0.0
-0.849118523642 -1.2032370429 0.0
0.849118162352 -1.203237664 0.0
-0.307515130983 -1.15536924192 0.0
-0.0790844296707 -1.25087712131 0.0
0.155158341135 -1.24343192691 0.0
0.147074808311 -1.19020596754 0.0
0.0155845817761 -1.17609059751 0.0
0.0355416073088 -1.11317884247 0.0
0.329483804982 -1.15717447992 0.0
-0.0273513884293 -1.14990506905 0.0
0.0590625487548 -1.14334108466 0.0
-0.149440331041 -1.19945976085 0.0
0.0751558305436 -1.17990161859 0.0
-0.879469930667 -1.36272181302 0.0
0.879470545081 -1.36272179643 0.0
-0.0790829701786 -1.17680453793 0.0
-0.30852342868 -1.26071396521 0.0
0.241582436888 -1.23156969629 0.0
0.319398851849 -1.225972069 0.0
-0.015202808374 -1.13732778108 0.0
-0.0935651726349 -1.1216742837 0.0
0.0827114887782 -1.12133911955 0.0
0.575476105736 -1.39862587379 0.0
-0.57553151323 -1.39853615177 0.0
0.420148404266 -1.1482417801 0.0
0.0184660816633 -1.15362846739 0.0
0.0304416614682 -1.14469804842 0.0
0.115457807332 -1.17628439709 0.0
-0.0224430933326 -1.11064824669 0.0
0.274696887248 -1.1354560231 0.0
0.765762751645 -1.22460010216 0.0
-0.765762934553 -1.2245993422 0.0
0.379165406309 -1.3777891083 0.0
0.0143986120666 -1.23947729769 0.0
-0.382002711389 -1.37969682552 0.0
-0.0650941692571 -1.11066527664 0.0
0.0825414392743 -1.2464160841 0.0
-0.15256460758 -1.1238490578 0.0
0.133832007234 -1.12156696916 0.0
0.521529898907 -1.16092345843 0.0
-0.524623641168 -1.15556187964 0.0
-0.437637350708 -1.17468178358 0.0
0.461230714735 -1.29323679895 0.0
-0.457251561717 -1.28516096452 0.0
0.0540528737244 -1.11227663839 0.0
-0.0418281283345 -1.13673533006 0.0
0.0139516684514 -1.10743420221 0.0
-0.274360443232 -1.1336540947 0.0
-0.779900935055 -1.41242228027 0.0
0.779903211265 -1.41242221055 0.0
0.00655262494295 -1.13600979531 0.0
-0.126463881737 -1.17024193268 0.0
0.637731236945 -1.16318839495 0.0
-0.63773135923 -1.16318607519 0.0
0.00258259699497 -1.10631374158 0.0
-0.218526645128 -1.12581771546 0.0
-0.00812781881694 -1.10707714611 0.0
0.19429372256 -1.12351022959 0.0
0.0278335281284 -1.108246705 0.0
0.115450974398 -1.1146962146 0.0
-0.34221191604 -1.13540047503 0.0
-0.0778445525274 -1.11651469722 0.0
-0.132552812344 -1.11656519934 0.0
-0.0458546427562 -1.11385502046 0.0
0.234380231795 -1.18313711986 0.0
0.243336556408 -1.12691544338 0.0
-0.357294974946 -1.22270793723 0.0
0.368942311719 -1.14521718926 0.0
0.0741122380501 -1.13412466936 0.0
0.0437947500892 -1.10869043167 0.0
-0.214690242515 -1.36647184191 0.0
0.0442783591393 -1.2767277909 0.0
0.039547511226 -1.18826918601 0.0
0.111005291733 -1.14547247178 0.0
-0.266086980123 -1.3130671998 0.0
0.308583605434 -1.1296139638 0.0
0.464372375502 -1.14944161782 0.0
0.713773941946 -1.15804781103 0.0
-0.713774130039 -1.15804654472 0.0
0.220176066023 -1.35851638258 0.0
-0.0502665202 -1.32808586181 0.0
0.531214991304 -1.2453359854 0.0
-0.234731443351 -1.20041009716 0.0
-0.526819075344 -1.23644897091 0.0
-0.00784413386568 -1.17726214496 0.0
-0.176793961138 -1.12393546717 0.0
-0.199215705926 -1.23473662359 0.0
-0.0756772535221 -1.15181854758 0.0
0.156290457654 -1.12179621393 0.0
-0.413771191673 -1.22568621805 0.0
-0.380621980369 -1.12906977834 0.0
0.415017711577 -1.23603023798 0.0
0.159573238385 -1.16280873531 0.0
0.0277606958681 -1.11997044962 0.0
-0.245537453594 -1.12288675095 0.0
0.65817666133 -1.29967076779 0.0
-0.659378819396 -1.30002769868 0.0
0.917403139218 -1.27404133652 0.0
-0.917403111356 -1.27404131393 0.0
0.00629163698396 -1.12483402069 0.0
-0.0498172212649 -1.17740254314 0.0
0.196957098162 -1.23733146436 0.0
-0.0153111707128 -1.10713700493 0.0
0.00801121818762 -1.10548047325 0.0
0.0474734421675 -1.32820728768 0.0
-0.00257668473175 -1.10483993071 0.0
0.331132504415 -1.31703778972 0.0
-0.0133414559065 -1.1252116244 0.0
-0.176049296108 -1.16677287307 0.0
0.237365082571 -1.42941304789 0.0
-0.340358642054 -1.17772286464 0.0
0.192114276709 -1.16142438917 0.0
-0.25040415543 -1.43758268591 0.0
-0.275080611517 -1.17802594386 0.0
-0.124238153305 -1.14810217022 0.0
-0.0272101971748 -1.21982796202 0.0
0.149628530095 -1.33006180903 0.0
0.0996526346735 -1.36129206403 0.0
0.0754926259782 -1.1097820989 0.0
-0.115054477332 -1.24201263428 0.0
-0.14143055417 -1.2931451125 0.0
-0.0610688469673 -1.13620567655 0.0
-0.0408839565044 -1.12241209737 0.0
0.219203923937 -1.11918960657 0.0
0.0700547153248 -1.15807683237 0.0
-0.211298888936 -1.16464722036 0.0
-0.0535144758239 -1.27823629427 0.0
0.0649129295723 -1.10825653454 0.0
-0.340652947932 -1.32786794079 0.0
0.618372796542 -1.24491385471 0.0
-0.618375261636 -1.24490501032 0.0
0.0151792381605 -1.11931343787 0.0
0.33807830208 -1.1264011266 0.0
0.578096563634 -1.14384717342 0.0
-0.577073894103 -1.14299870575 0.0
0.020486060589 -1.10559535904 0.0
0.0275461930069 -1.2115931715 0.0
-0.342659212075 -1.43751130022 0.0
-0.102894580055 -1.17143341146 0.0
0.365706817442 -1.23501398969 0.0
0.335634419859 -1.43439344389 0.0
0.118756876334 -1.23706561277 0.0
0.101876965297 -1.10944919512 0.0
0.246065924389 -1.31002492706 0.0
2.96649658024e-05 -1.36108041246 0.0
0.523996648675 -1.32495250098 0.0
-0.523656063877 -1.32420032742 0.0
-0.468572350031 -1.13469893206 0.0
-0.101993402997 -1.11054812222 0.0
0.250178082773 -1.15536727027 0.0
-0.435538825962 -1.43700778222 0.0
0.431050080751 -1.43298323348 0.0
-0.195640354789 -1.11821374998 0.0
0.173452707971 -1.1165858346 0.0
-0.924285164959 -1.1714931796 0.0
[...]
POINT_DATA 407
VECTORS Displacement float
0.0 0.0 0
0.0 0.0 0
0.00123172701152 -0.000188857534101 0
2.82996891511e-05 -0.0410592699339 0
-0.00123825253209 -0.00019309165279 0
0.0 0.0 0
0.0 0.0 0
0.0 0.0 0
0.0 0.0 0
0.0 0.0 0
0.0 0.0 0
0.0 0.0 0
0.0 0.0 0
0.0 0.0 0
0.0 0.0 0
0.0 0.0 0
0.0 0.0 0
0.0 0.0 0
0.0 0.0 0
0.0 0.0 0
0.0 0.0 0
0.0 0.0 0
0.0 0.0 0
0.0 0.0 0
0.00047857237617 -0.000239398619956 0
0.000839753752666 -0.000246774737082 0
0.00105170462322 -0.000202665816501 0
0.00121990776966 -7.95518706783e-06 0
0.00116465629686 0.000154390015217 0
0.00105576001753 0.000255184814955 0
0.000874263745354 0.000249889980304 0
0.00061909067561 8.88498846351e-05 0
0.000202437285981 -0.000258106088141 0
-0.000243616018895 -0.000879899143366 0
-0.000812951771452 -0.0018295720682 0
-0.00142956394463 -0.00310216558378 0
-0.00206382089787 -0.00479691345629 0
-0.00286799762049 -0.00690647128203 0
-0.00355261775696 -0.00961963788598 0
-0.00397341108136 -0.0130148326943 0
-0.00408339990763 -0.0177482737651 0
-0.00372792466774 -0.0226883612364 0
-0.00333307228115 -0.0266055076322 0
-0.00289243911504 -0.0297003060824 0
-0.00251339696697 -0.0322757100176 0
-0.00217947825657 -0.034301335538 0
-0.00186828427045 -0.0358687974991 0
-0.0015791268122 -0.0371908371369 0
-0.00132924079422 -0.0381936843331 0
-0.00111115754034 -0.0389607245695 0
-0.000917420201359 -0.0395642734778 0
-0.000761597340679 -0.0400431315327 0
-0.000612169954514 -0.0403884363054 0
-0.000470920264069 -0.0406389090775 0
-0.000350594545743 -0.0408158245827 0
-0.000237426275976 -0.0409351939298 0
-0.000140302734433 -0.0410100960393 0
-5.04925079597e-05 -0.0410481255336 0
0.000108505104484 -0.0410472820786 0
0.000195601859612 -0.0410083604225 0
0.00029145808246 -0.0409341857534 0
0.000403776709704 -0.0408152916922 0
0.000524950266959 -0.0406388119214 0
0.000663593658738 -0.0403885112393 0
0.000815306007613 -0.0400435240201 0
0.000976030017518 -0.0395659353444 0
0.00115734823717 -0.0389605973562 0
0.00137460215625 -0.0381954030548 0
0.00161983488714 -0.037195144495 0
0.00189406753454 -0.0358680911299 0
0.00220585038443 -0.0343047303598 0
0.0025601382494 -0.0322836306162 0
0.00291904217589 -0.0297060882894 0
0.00331683464177 -0.0266055149177 0
0.00375782492179 -0.0226883755861 0
0.00403670039316 -0.0177409580753 0
0.00394167403224 -0.0129886892163 0
0.00352191547252 -0.00962742064 0
0.00280583770394 -0.0069032715506 0
0.00215352813397 -0.00478573961025 0
0.00145892184642 -0.00310310079093 0
0.000816592029237 -0.00178789661708 0
0.000202978716509 -0.000876920472032 0
-0.000232007096857 -0.000271437346793 0
-0.000629775956832 7.78585748514e-05 0
-0.00088402193746 0.00024835122052 0
-0.0010639688179 0.000253209437318 0
-0.00117169625892 0.000152022432658 0
-0.0012264882524 -1.08807512993e-05 0
-0.00105652379218 -0.000206845208326 0
-0.000842491968681 -0.000250209065614 0
-0.000479652667757 -0.000241321476363 0
-9.4714398618e-05 -0.0184956608602 0
-0.00449539285782 -0.0122517540419 0
0.00442545101234 -0.0128937272165 0
-4.43366417995e-05 -0.029156595635 0
0.00223998547347 -0.0255433982395 0
-0.00209619967101 -0.0261617295178 0
0.0036262520302 -0.003296108092 0
-0.00363385449403 -0.00319758166018 0
0.000530610260874 -0.0332878580789 0
1.9575786758e-05 -0.0355010507533 0
-0.000385499731986 -0.0339281556134 0
-0.00314388953701 -0.0185980583092 0
0.00331547820065 -0.0186372732846 0
0.00185436420744 -0.00014667474168 0
-0.00184824593701 -0.000139456640799 0
-0.000616727286085 -0.0314821619898 0
3.46500434876e-06 -0.0373947803066 0
3.49556176042e-05 -0.0382306633803 0
9.22432633131e-05 -0.0376231195553 0
0.000564051525031 -0.0325618930468 0
-0.00101754439521 -0.0267197499466 0
-0.00295932842809 -0.00733221007116 0
0.00209251045997 -0.010718963302 0
0.000680636341072 -0.0289953533588 0
0.00103697760983 0.000140275182125 0
-0.00103845536024 0.000138426342355 0
-0.000177924353483 -0.0378058241444 0
-0.00195795527191 -0.00126278655516 0
0.00182144248901 -0.00115596050949 0
9.36659920644e-05 -0.0351883056679 0
-0.00261263534595 -0.0170632318305 0
0.00176386792384 -0.00341241592831 0
-3.73376380963e-05 -0.0394231767176 0
-0.00133244550076 -0.014336706058 0
0.00258905895281 -0.0160833592002 0
0.00014892476974 -0.0392727681186 0
-0.00109073411726 -0.00350630804129 0
0.000275614873304 -0.0373233074366 0
0.00132347801312 -0.0259982420071 0
-0.000583673599522 -0.0219351111868 0
0.000294169020007 -0.025174818382 0
0.000838112200702 -0.0178825980955 0
-0.00115489626542 -0.0281648591232 0
-0.000382575166652 -0.036970906867 0
4.89762971428e-05 -0.0397806208029 0
-0.000164927462721 -0.0394496215958 0
0.00402721902424 -0.00438363862181 0
0.00445622412369 -0.00820010723951 0
-0.00393382691551 -0.00429484097996 0
0.00123012611451 0.000260745452436 0
-0.00123480969621 0.000258091205793 0
-0.00105293042721 -0.00850199903274 0
-0.000383231092924 -0.0322210109851 0
0.00118242455881 -0.00935667168648 0
0.00301441436084 -0.00732397529492 0
0.00254613112685 -0.000880988602964 0
-0.00255001210434 -0.000876467454802 0
0.00125072455189 1.56370536029e-05 0
-0.00127009934981 1.77866386639e-05 0
-0.000415780399224 -0.0341144957707 0
-0.00303425315457 -0.00768045064596 0
-0.000692273226445 -0.0229518490611 0
-0.0037486222692 -0.0181236351607 0
0.000241149677893 -0.0326563578422 0
0.000336374118663 -0.0389783017161 0
-0.00113835264843 -3.0583075665e-06 0
0.00114742904955 -3.98664058655e-06 0
-0.00446944435046 -0.0109863499611 0
-0.00107708871671 0.000105698948925 0
0.00107228845233 0.000108330864771 0
-0.000747753329312 -0.00787055374341 0
-0.00219306030179 -0.0218448540677 0
0.00375874830315 -0.0183126492881 0
0.00261007756612 -0.0235122710324 0
0.000274872060963 -0.0319165356145 0
-0.000291031269777 -0.0389807641713 0
0.000694512819976 -0.00630478769994 0
-0.000184528079269 -0.034855779627 0
0.000308731328095 -0.0345889049511 0
-0.00291283288051 -0.0224954402493 0
0.00127496672925 -0.0296570294639 0
-0.000671039176929 -1.40687179331e-05 0
0.00067007691901 -1.26213143088e-05 0
-0.00127822727416 -0.0298331812801 0
-0.00421107168481 -0.00662604491987 0
0.00418304988064 -0.0120845591316 0
0.00341601177073 -0.00654950905027 0
-1.80460751753e-05 -0.0365437956231 0
0.000501022243222 -0.0349420530947 0
-0.000406127019639 -0.0357709668567 0
0.00152499126017 -0.000236561811567 0
-0.00152463464504 -0.000232832031573 0
0.000360741651927 -0.00234653736587 0
0.000183042109719 -0.0345527158282 0
0.000188255283329 -0.0354016443392 0
0.00179836913222 -0.0274859703765 0
0.000259152198958 -0.0395917654428 0
-0.000343986243069 -0.010975377129 0
0.00111978185379 0.000229100348014 0
-0.00112417776593 0.000226513844325 0
0.00333998710865 -0.0022395331572 0
0.000385404676088 -0.0245686724235 0
-0.00327617466981 -0.00214397642725 0
0.000707572372977 -0.0380229937566 0
0.00226712804303 -0.0221539457837 0
0.000667038181954 -0.0288788835272 0
-0.000716748694231 -0.0312602159466 0
0.000882560442911 -0.000403244756221 0
-0.000799958640395 -0.000387886551149 0
-0.00112553053072 -0.00182523373644 0
0.00285486778359 -0.00124415973338 0
-0.00284240976694 -0.00131414606006 0
-0.000484320719127 -0.038394871213 0
-6.80933274899e-05 -0.0360303565441 0
-0.000136492811412 -0.0401006305898 0
0.000447268024913 -0.0110237095411 0
-0.000592749458211 2.24369555421e-05 0
0.000592974427643 2.28820728811e-05 0
3.70308296412e-05 -0.0367611171265 0
-0.00168711109507 -0.0271508559787 0
0.00102387408372 0.000238027807598 0
-0.00103568278619 0.00023596661488 0
-4.6039520494e-06 -0.0403093520921 0
0.000674070652874 -0.0190987327703 0
0.000124217108034 -0.0401961902394 0
-0.000834791212858 -0.0231234880518 0
-0.000291011344494 -0.0397639000966 0
-0.0010138275169 -0.0338110262479 0
0.000425039663816 -0.00557323463644 0
0.000620603491036 -0.036611466996 0
0.00107880424525 -0.0318937276298 0
0.000421349004759 -0.038551719895 0
0.00283398683195 -0.0146952583473 0
-0.000852259681103 -0.0151614294219 0
-0.0029259123123 -0.00459567071103 0
9.46917929554e-05 -0.00418638721184 0
8.8067642653e-05 -0.0348764019125 0
-0.000468963765765 -0.0392303882237 0
-0.00404479059965 -0.00705965677205 0
0.00131065923532 -0.0200994387952 0
0.000777871381335 -0.0300684643851 0
0.000631124777354 -0.0310435329756 0
-0.00466821416835 -0.00739706364884 0
-0.000899250999006 -0.00784246908282 0
0.000542463902274 -0.00128701269185 0
0.00106600363627 0.000291476330827 0
-0.00107429817297 0.000289155389025 0
0.00410799325987 -0.00730476820121 0
-0.00139697984899 -0.0147607708263 0
0.00191823126814 -0.000357819196189 0
-0.00346848927102 -0.0140024579255 0
-0.00187458194473 -0.000367660702169 0
-0.000118003723702 -0.0318422654645 0
0.000805671059151 -0.0256735856347 0
-0.00408859742647 -0.0155089021722 0
-0.000550551306147 -0.0327869994218 0
-0.000856691504164 -0.0285738124831 0
-0.00247025908159 -0.00244071167726 0
0.000540760277439 -0.00376897178165 0
0.00260813367454 -0.00242216640029 0
0.00176334205382 -0.0246128608229 0
-0.000126984185044 -0.0383906029932 0
0.00125507067982 -0.014874713132 0
0.00143240225011 0.000119119859733 0
-0.00142633472127 0.000119821403624 0
0.000923527313076 -4.91524775468e-05 0
-0.000926549885345 -5.1760178941e-05 0
3.46657197411e-06 -0.0381006657074 0
-0.000799555160468 -0.0310179175545 0
0.00410991019723 -0.0156464659857 0
0.000210750478284 -0.0401171320683 0
-7.38767742653e-05 -0.0403838216207 0
0.0013599289808 -0.0147555343835 0
6.08392851241e-05 -0.0404840749276 0
0.00425992742812 -0.0044849105226 0
6.77601399633e-05 -0.0380060364812 0
-0.00202142544365 -0.022448813305 0
0.00276518394602 -0.00322430371666 0
-0.00158088392727 -0.00563294881922 0
0.00184246666748 -0.0208732175916 0
-0.00248592630424 -0.00274438993795 0
-0.00224996153754 -0.0105369332785 0
-0.00076234764333 -0.0295846355614 0
-0.000702349839842 -0.0266869890786 0
0.00364316199081 -0.0117644618001 0
0.00243606132451 -0.0107723333546 0
-0.000811506968726 -0.0375176730885 0
-0.00302283175464 -0.0210151087701 0
-0.00369067414392 -0.015086416779 0
-7.56393294392e-05 -0.0353092053452 0
0.000207640933768 -0.0377289407893 0
-0.00148521991897 -0.0193394366851 0
0.000750825081684 -0.032389974667 0
-0.00204011254167 -0.0182761868668 0
-0.0015441458909 -0.0197686811495 0
-0.000737218274621 -0.0383027179345 0
-0.00413609374743 -0.00401580131159 0
0.00147541741939 0.000124904512832 0
-0.00147695267414 0.000123051723326 0
-6.15799933766e-05 -0.0386798584986 0
-0.000981479143359 -0.00585491647634 0
0.000800303334437 1.32427291136e-05 0
-0.000792711103643 -5.38389539807e-06 0
-0.000233766055989 -0.0402222644485 0
0.000660213610364 -0.0276034758213 0
-0.00231687251038 -0.00161858324844 0
-0.00142010837808 -0.0288870426737 0
0.00309187885693 -0.00411652631977 0
0.0024260974477 -0.001790672877 0
0.00300213844316 -0.0212894856236 0
-0.00115950649832 -0.035575634513 0
0.00463614982137 -0.00850186569332 0
4.55373408376e-05 -0.0118416660686 0
0.00232819439631 -0.000537536338692 0
-0.00232331490811 -0.000531178661086 0
-0.000208469134726 -0.00118162096261 0
0.0011371484721 -0.0354514257152 0
0.00124856452819 -0.0136757756117 0
-0.0018393825096 -0.000811975443697 0
0.00195165426295 -0.000898139946916 0
0.00145830777032 -0.0232793677351 0
-0.0014432196536 -0.0267090707536 0
-0.00111171749183 -4.54869202399e-05 0
0.00110630693876 -4.2340225764e-05 0
-0.00262314356622 -0.0114672020735 0
0.00350036833579 -0.00979462151912 0
-0.000447779311665 -0.0331183010916 0
0.00127261513063 -0.0339808619155 0
0.0034798896412 -0.0170264264578 0
0.000305155254609 -0.0403282438335 0
0.00122485488719 -0.00796979483196 0
0.00129540802796 -0.0298607388892 0
0.000387671843832 -0.0400411845974 0
0.000500975795889 -0.0399360313336 0
0.00103132291003 -0.0367506205587 0
-0.000426197874718 -0.0398143861798 0
0.000150244863002 -0.0386218158829 0
0.000921026646702 -0.00864076505676 0
-0.000146372977257 -0.0335314443625 0
-0.000945739662074 -0.0364376385498 0
0.00160002585757 -0.0270792510465 0
0.00121005409955 0.000197946466395 0
-0.0012096694648 0.000196081501321 0
7.38756402617e-05 -0.0390974881473 0
0.00157134273225 -0.00577083435831 0
0.000674722868883 -0.0389904605805 0
-0.00364948503256 -0.0102087164878 0
2.39194116146e-05 -0.037151542391 0
-5.39125096244e-05 -0.0363772387641 0
-0.00185935669338 -0.0256015387123 0
-4.36507638099e-05 -0.0363052102192 0
0.00161417099461 -0.0270435774191 0
0.000883465470092 -0.000105379108945 0
-0.000881373628575 -0.000104291637216 0
2.15051515878e-05 -0.0389600649356 0
0.00389957315925 -0.0051889173874 0
0.00334822360026 -0.00201309156557 0
0.00349573479142 -0.0197244410149 0
4.82554660454e-05 -0.0336373228071 0
7.92382746312e-05 -0.00236348315931 0
-4.17665980951e-05 -0.0297085020789 0
-9.73099677136e-05 -0.0317238159295 0
2.8698790048e-06 -0.0370354678565 0
-0.00333022178946 -0.00199257283266 0
0.00155791148897 -0.00213644497452 0
-0.00358236459553 -0.0187320149072 0
-0.0014232572181 -0.0242596283001 0
-0.00175438278875 -0.00571258226777 0
0.00159437719405 -7.11832828884e-05 0
-0.00159042810376 -6.7186152728e-05 0
-0.000319557914792 -5.73398628662e-05 0
0.000319189405222 -5.64736581002e-05 0
0.00143729986993 -0.000423621512406 0
-0.00143739746798 -0.000422198071851 0
-0.000547301766382 -0.0296586000867 0
-0.000108221976876 -0.034145056968 0
-0.000676374340146 -0.0247322419444 0
0.000432690164249 -0.00532069872001 0
-0.00114031420505 9.27078088469e-05 0
0.00113405568101 9.53449109959e-05 0
0.000493410122296 -0.0272519577209 0
0.000264601921014 -0.0364525745086 0
-0.0004065083329 -1.43556337659e-05 0
0.000406411502422 -1.37660286192e-05 0
-0.00386060900796 -0.0105907038575 0
-0.000970832007009 8.33529969805e-05 0
0.000968279948216 8.55562134221e-05 0
0.00123768743494 -0.0234538829564 0
0.000667315927713 -0.000114335720769 0
-0.000668808462831 -0.000116382374069 0
0.000563309382636 -0.0395046313556 0
-0.00103519439002 8.08024556581e-05 0
0.00103702288371 8.20439724359e-05 0
-0.00217811912462 -0.00394840788115 0
9.39396725383e-05 -0.0360690593579 0
0.000951970963203 -0.0307261154246 0
0.000630228434717 -2.99438304585e-05 0
-0.000629349742012 -2.97285311477e-05 0
4.49145283216e-05 -0.0339139026344 0
0.00454985810262 -0.0114200269085 0
-0.00106719657902 -0.00101536477771 0
0.000393107804062 -0.0330283511295 0
0.00205596389385 -0.00525923526454 0
-0.000511360471704 -0.0035651082968 0
0.00289941902844 -0.0228574792718 0
-0.000767463903925 -0.0319506904686 0
0.00232743043241 -0.00776433370439 0
-0.00194985017658 -0.0248273459275 0
0.000131481980517 -0.0358600591529 0
0.00109875476978 0.000212452899378 0
-0.00110548471971 0.000209987771065 0
-0.000808607326494 5.44928031713e-05 0
0.000808231651694 5.57463544732e-05 0
0.000986898356454 -0.0378397088021 0
0.00168703599947 -0.00322948111842 0
SCALARS EPSXX float
LOOKUP_TABLE default
9.53563516344e-05
9.26089390751e-05
3.61348591963e-05
-0.0144752806484
3.51266172048e-05
-0.000231437601044
-0.000884557592048
-0.000781988785775
-0.00222534313915
-0.00192862250756
-0.00168676903122
-0.000587830158517
0.00144120575323
0.00481322173318
0.00349807572525
0.00547597098346
0.00128979260092
-0.000502045195086
-0.00176147970937
-0.0019545877041
-0.00221651507538
-0.000784325653523
-0.000887913596473
-0.00023245711343
4.91870926903e-05
-0.000253301792793
-0.000151005135054
0.000305617496131
0.000849378117023
0.00144044290984
0.00234276744109
0.00413727444903
0.00587979457681
0.00713208388951
0.00970375387801
0.0103061947414
0.0143620908215
0.0162416518383
0.0107255027195
0.0017434968632
-0.0065766883936
-0.0120696510383
-0.0150435734666
-0.0159561749278
-0.0147595730507
-0.0162956267942
-0.0179684549461
-0.0172158460771
-0.0163445996554
-0.0162797761535
-0.0149091287445
-0.0142837321661
-0.0154280388764
-0.015214417965
-0.0149975985037
-0.0148537274794
-0.0146115052589
-0.0144938795685
-0.0144987092795
-0.014139022819
-0.0150197924459
-0.0152546891354
-0.0154359281339
-0.0157578276076
-0.0151502391492
-0.0148733772078
-0.0158419443061
-0.0167439740399
-0.0165444908745
-0.0172225799288
-0.0173095310459
-0.0159957515572
-0.0140236139929
-0.014021413067
-0.0117406817972
-0.00520810683443
0.00237098520855
0.0115154627526
0.0139189345807
0.0134407904062
0.012797710492
0.0108393500968
0.00802749314239
0.00589824689775
0.00410523962322
0.00231472102305
0.00142133563629
0.000839206617331
0.000302199901337
-0.000150057728164
-0.000249277531289
5.46565582756e-05
0.028604233571
0.0077220391877
0.0100212498068
0.0227741237456
0.0193801397493
0.0171838870857
-0.0104937957679
-0.0104869562972
0.0106496941262
0.00634725320195
0.00679331905112
0.00525473556921
0.00430692733459
-0.00602276345588
-0.00584999891396
0.00706589470882
-0.000410668629079
-0.00386236181433
-0.00205177994692
0.00592270508599
0.00508935152986
-0.010497919213
-0.00996869606896
0.00328784570755
-0.00216510405877
-0.00214944198493
-0.00488683458326
-0.00581068357338
-0.00467317602863
-0.00104021309896
0.0242239429147
-0.00514910321002
-0.00847818910789
-0.00740801891939
0.0235313645754
-0.00842481831465
-0.0026484167295
-0.00467434824849
0.0241697903276
-0.000387640173285
-0.000842378252102
-0.00430451407787
0.020866713874
-0.00644792929057
-0.00964458591058
-0.00915630943459
-0.00291265462119
-0.00649835263144
-0.00308999737012
-0.00167284802473
-0.0016741363548
0.0204217751435
0.0144099922058
0.0206913039389
0.0113002053649
-0.00840010138581
-0.00833092311294
-0.00127214865439
-0.00120681600629
-0.00513343983924
0.0134958216615
0.027832226804
0.0141596782579
-0.00232300786056
-0.00831949085684
-0.00427101474952
-0.00429771491233
-0.0010692399486
-0.000414463742476
-0.000411904130199
-0.00616535520745
0.0253995691198
0.0145065397267
0.0119533048513
0.0176771117915
-0.00887429654774
-0.00351120324199
0.00749086728607
0.00440310206692
0.0138298761962
0.0167316330633
-0.000958470760055
-0.000964743226851
0.0152447810175
-0.00856598351426
-0.00146309485696
-0.0107871280808
0.00350311176816
-0.00491980036145
-0.00577017300536
-0.0062193900557
-0.00625310957563
0.00387145019083
0.0093747430858
0.00598175723915
0.0136318539094
-0.0099194129308
-0.00398823583149
-0.00105152796363
-0.00105151279676
-0.00770256405948
0.0272442298835
-0.0075146272986
-0.0107247172553
0.024243802784
-0.00605816991392
-0.00715785529743
0.000839508944286
0.00218748872497
-0.00127988140529
-0.0091133448529
-0.00927393700686
-0.00937294018343
0.0024402607151
-0.0112662107245
-0.00409466643467
-0.00202296235271
-0.00203281621617
0.00145469565419
0.0116991190411
0.000629087086162
0.000616013636299
-0.0120599989468
-0.00607718203925
-0.0113717458264
-0.00489186556592
-0.0115982756767
-0.010667742563
0.00295837268077
-0.00769586150851
-0.00874670295124
-0.00845794929144
-0.00398944146408
-0.00706216274303
-0.0100771699445
0.00289561443042
0.000955398165229
-0.0113324040341
0.0050633139943
0.0277880222849
0.0187892228586
0.00583096666819
-0.00174749995507
0.00287660395991
0.00292928886664
0.00050289686684
0.000476106790369
0.0065732149373
0.0263785500586
-0.0055996616789
-0.00242478495655
-0.00526376883255
0.0167306834544
-0.00666882103193
0.00551032494752
0.0061545997877
-0.00808188735009
-0.00806920791199
0.00741132089105
-0.00886989018733
0.0064370158606
-0.00548023174111
-0.00676886066817
-0.00433502034072
-0.00429299104575
-0.000372099027895
-0.000369636692418
-0.00272826914286
0.0165787171152
0.00667759675377
-0.0125153878436
-0.0127499091429
0.026044335733
-0.0129046030551
-0.00752036189396
-0.00292112656128
0.00629383313128
0.00231403337154
-0.00663409975507
0.000834449839404
0.00104717270535
-0.00957031519112
0.00652254226217
0.0252385956574
0.015429095333
0.0200461151169
-0.0119192542316
0.0201669257549
0.0182801048488
0.00147610627052
-0.00433327454344
-0.00905186723974
0.00995488665815
-0.00159985776292
0.0280047113029
-0.0127060771446
-0.00811082835355
-0.00355486691901
-0.00354565501223
-0.00588890703743
0.0074884123336
0.00254234590303
0.00278058026784
-0.0129085768178
0.0232521778527
-0.0033131610765
0.0115759562103
-0.0105353412221
-0.00337290375776
0.020761065199
-0.0133375459893
-0.000452349233522
0.0250027643954
-0.00807018216629
-0.0080155478804