# vtk DataFile Version 2.0
Generated with Solid Solver
ASCII
DATASET UNSTRUCTURED_GRID
POINTS 407 float 
-1.0 -1.5 0.0
1.0 -1.5 0.0
1.0 -1.1 0.0
0.0 -1.1 0.0
-1.0 -1.1 0.0
-0.9 -1.5 0.0
-0.800000000001 -1.5 0.0
-0.700000000001 -1.5 0.0
-0.600000000001 -1.5 0.0
-0.500000000001 -1.5 0.0
-0.400000000002 -1.5 0.0
-0.300000000002 -1.5 0.0
-0.200000000002 -1.5 0.0
-0.100000000002 -1.5 0.0
-2.75224287805e-12 -1.5 0.0
0.0999999999975 -1.5 0.0
0.199999999998 -1.5 0.0
0.299999999998 -1.5 0.0
0.399999999998 -1.5 0.0
0.499999999999 -1.5 0.0
0.599999999999 -1.5 0.0
0.699999999999 -1.5 0.0
0.799999999999 -1.5 0.0
0.9 -1.5 0.0
1.0 -1.4 0.0
1.0 -1.3 0.0
1.0 -1.2 0.0
0.905928217587 -1.1 0.0
0.820263453774 -1.1 0.0
0.742254398973 -1.1 0.0
0.671216872589 -1.1 0.0
0.606527842479 -1.1 0.0
0.547619945734 -1.1 0.0
0.493976558471 -1.1 0.0
0.445127166321 -1.1 0.0
0.400643361094 -1.1 0.0
0.360134998043 -1.1 0.0
0.323246790224 -1.1 0.0
0.289655219404 -1.1 0.0
0.259065667063 -1.1 0.0
0.231209843304 -1.1 0.0
0.205843446954 -1.1 0.0
0.182743998166 -1.1 0.0
0.16170890826 -1.1 0.0
0.142553685229 -1.1 0.0
0.125110329238 -1.1 0.0
0.109225856428 -1.1 0.0
0.0947609495665 -1.1 0.0
0.0815887446868 -1.1 0.0
0.0695937145777 -1.1 0.0
0.0586706603407 -1.1 0.0
0.048723779798 -1.1 0.0
0.0396658337903 -1.1 0.0
0.0314173808273 -1.1 0.0
0.0239060768398 -1.1 0.0
0.0170660443381 -1.1 0.0
0.0108372925648 -1.1 0.0
0.00516519398994 -1.1 0.0
-0.00516519398993 -1.1 0.0
-0.0108372925647 -1.1 0.0
-0.0170660443381 -1.1 0.0
-0.0239060768397 -1.1 0.0
-0.0314173808272 -1.1 0.0
-0.0396658337902 -1.1 0.0
-0.0487237797978 -1.1 0.0
-0.0586706603405 -1.1 0.0
-0.0695937145775 -1.1 0.0
-0.0815887446865 -1.1 0.0
-0.0947609495661 -1.1 0.0
-0.109225856428 -1.1 0.0
-0.125110329238 -1.1 0.0
-0.142553685229 -1.1 0.0
-0.161708908259 -1.1 0.0
-0.182743998165 -1.1 0.0
-0.205843446953 -1.1 0.0
-0.231209843303 -1.1 0.0
-0.259065667061 -1.1 0.0
-0.289655219402 -1.1 0.0
-0.323246790221 -1.1 0.0
-0.360134998041 -1.1 0.0
-0.400643361091 -1.1 0.0
-0.445127166318 -1.1 0.0
-0.493976558467 -1.1 0.0
-0.547619945731 -1.1 0.0
-0.606527842476 -1.1 0.0
-0.671216872587 -1.1 0.0
-0.742254398972 -1.1 0.0
-0.820263453773 -1.1 0.0
-0.905928217586 -1.1 0.0
-1.0 -1.2 0.0
-1.0 -1.3 0.0
-1.0 -1.4 0.0
-0.00339355829943 -1.29556895644 0.0
-0.196912220984 -1.28956897041 0.0
0.188837994897 -1.28838045821 0.0
-0.00258259699496 -1.20005002355 0.0
0.101993402997 -1.20441695995 0.0
-0.105191458318 -1.19630234765 0.0
0.380389179569 -1.28510227616 0.0
-0.381856294381 -1.28323611984 0.0
0.0479684171092 -1.15838170444 0.0
-2.31149289229e-05 -1.14680836359 0.0
-0.0536972200692 -1.15093779372 0.0
-0.193164863752 -1.1939425788 0.0
0.191283434179 -1.19695753022 0.0
0.577073894107 -1.29470369569 0.0
-0.577073894103 -1.29469199245 0.0
-0.101993402997 -1.14785122574 0.0
0.020486060589 -1.12955783801 0.0
-0.00290651272538 -1.12380450444 0.0
-0.0278953984958 -1.12643199813 0.0
0.0874989711273 -1.14740340153 0.0
-0.150891910472 -1.15001019056 0.0
-0.310443384135 -1.2053802705 0.0
0.273860917988 -1.17486841587 0.0
0.133832007234 -1.14483071405 0.0
0.778317850003 -1.29589910064 0.0
-0.778317655617 -1.2958991784 0.0
0.0424219918094 -1.12139730959 0.0
-0.464259164123 -1.21857410462 0.0
0.470037252289 -1.2120582049 0.0
-0.0761792463972 -1.13016333696 0.0
-0.0931047133916 -1.29398579638 0.0
0.386430341627 -1.1909731548 0.0
0.00751933893698 -1.11365442246 0.0
-0.244524669244 -1.1549619446 0.0
0.0926266176505 -1.30406204634 0.0
-0.0148786758415 -1.1143555944 0.0
-0.384327804165 -1.16975639851 0.0
-0.053725773014 -1.12167998107 0.0
0.0532172951672 -1.22032956712 0.0
-0.194293722559 -1.14131556728 0.0
0.172226453213 -1.13762272946 0.0
0.221336050459 -1.14552235988 0.0
-0.0524006038363 -1.20164091124 0.0
0.0667547732406 -1.11922393539 0.0
-0.00217300784687 -1.11080876585 0.0
0.020486060589 -1.11215314478 0.0
0.290305703628 -1.37388864806 0.0
0.281850719989 -1.26224840804 0.0
-0.292402399754 -1.37476825374 0.0
0.68441946515 -1.22221494091 0.0
-0.684420288522 -1.22221209449 0.0
-0.0495577436163 -1.39482321149 0.0
-0.0270721180017 -1.17216748226 0.0
0.0507562379678 -1.38471201716 0.0
0.155074418569 -1.38878597318 0.0
0.474657007875 -1.37336955706 0.0
-0.474762485448 -1.37340466944 0.0
0.577073894107 -1.19512401372 0.0
-0.577073894103 -1.19511802818 0.0
0.101772198968 -1.12348574686 0.0
-0.152109762736 -1.38433622034 0.0
-0.0251657874515 -1.25288046114 0.0
-0.155901400984 -1.24439789591 0.0
-0.112936844846 -1.12838437888 0.0
-0.0351158399213 -1.11335815716 0.0
-0.67430463455 -1.37333504061 0.0
0.673396502419 -1.37285090506 0.0
-0.243996846157 -1.25449095433 0.0
-0.849118523642 -1.2032370429 0.0
0.849118162352 -1.203237664 0.0
-0.307515130983 -1.15536924192 0.0
-0.0790844296707 -1.25087712131 0.0
0.155158341135 -1.24343192691 0.0
0.147074808311 -1.19020596754 0.0
0.0155845817761 -1.17609059751 0.0
0.0355416073088 -1.11317884247 0.0
0.329483804982 -1.15717447992 0.0
-0.0273513884293 -1.14990506905 0.0
0.0590625487548 -1.14334108466 0.0
-0.149440331041 -1.19945976085 0.0
0.0751558305436 -1.17990161859 0.0
-0.879469930667 -1.36272181302 0.0
0.879470545081 -1.36272179643 0.0
-0.0790829701786 -1.17680453793 0.0
-0.30852342868 -1.26071396521 0.0
0.241582436888 -1.23156969629 0.0
0.319398851849 -1.225972069 0.0
-0.015202808374 -1.13732778108 0.0
-0.0935651726349 -1.1216742837 0.0
0.0827114887782 -1.12133911955 0.0
0.575476105736 -1.39862587379 0.0
-0.57553151323 -1.39853615177 0.0
0.420148404266 -1.1482417801 0.0
0.0184660816633 -1.15362846739 0.0
0.0304416614682 -1.14469804842 0.0
0.115457807332 -1.17628439709 0.0
-0.0224430933326 -1.11064824669 0.0
0.274696887248 -1.1354560231 0.0
0.765762751645 -1.22460010216 0.0
-0.765762934553 -1.2245993422 0.0
0.379165406309 -1.3777891083 0.0
0.0143986120666 -1.23947729769 0.0
-0.382002711389 -1.37969682552 0.0
-0.0650941692571 -1.11066527664 0.0
0.0825414392743 -1.2464160841 0.0
-0.15256460758 -1.1238490578 0.0
0.133832007234 -1.12156696916 0.0
0.521529898907 -1.16092345843 0.0
-0.524623641168 -1.15556187964 0.0
-0.437637350708 -1.17468178358 0.0
0.461230714735 -1.29323679895 0.0
-0.457251561717 -1.28516096452 0.0
0.0540528737244 -1.11227663839 0.0
-0.0418281283345 -1.13673533006 0.0
0.0139516684514 -1.10743420221 0.0
-0.274360443232 -1.1336540947 0.0
-0.779900935055 -1.41242228027 0.0
0.779903211265 -1.41242221055 0.0
0.00655262494295 -1.13600979531 0.0
-0.126463881737 -1.17024193268 0.0
0.637731236945 -1.16318839495 0.0
-0.63773135923 -1.16318607519 0.0
0.00258259699497 -1.10631374158 0.0
-0.218526645128 -1.12581771546 0.0
-0.00812781881694 -1.10707714611 0.0
0.19429372256 -1.12351022959 0.0
0.0278335281284 -1.108246705 0.0
0.115450974398 -1.1146962146 0.0
-0.34221191604 -1.13540047503 0.0
-0.0778445525274 -1.11651469722 0.0
-0.132552812344 -1.11656519934 0.0
-0.0458546427562 -1.11385502046 0.0
0.234380231795 -1.18313711986 0.0
0.243336556408 -1.12691544338 0.0
-0.357294974946 -1.22270793723 0.0
0.368942311719 -1.14521718926 0.0
0.0741122380501 -1.13412466936 0.0
0.0437947500892 -1.10869043167 0.0
-0.214690242515 -1.36647184191 0.0
0.0442783591393 -1.2767277909 0.0
0.039547511226 -1.18826918601 0.0
0.111005291733 -1.14547247178 0.0
-0.266086980123 -1.3130671998 0.0
0.308583605434 -1.1296139638 0.0
0.464372375502 -1.14944161782 0.0
0.713773941946 -1.15804781103 0.0
-0.713774130039 -1.15804654472 0.0
0.220176066023 -1.35851638258 0.0
-0.0502665202 -1.32808586181 0.0
0.531214991304 -1.2453359854 0.0
-0.234731443351 -1.20041009716 0.0
-0.526819075344 -1.23644897091 0.0
-0.00784413386568 -1.17726214496 0.0
-0.176793961138 -1.12393546717 0.0
-0.199215705926 -1.23473662359 0.0
-0.0756772535221 -1.15181854758 0.0
0.156290457654 -1.12179621393 0.0
-0.413771191673 -1.22568621805 0.0
-0.380621980369 -1.12906977834 0.0
0.415017711577 -1.23603023798 0.0
0.159573238385 -1.16280873531 0.0
0.0277606958681 -1.11997044962 0.0
-0.245537453594 -1.12288675095 0.0
0.65817666133 -1.29967076779 0.0
-0.659378819396 -1.30002769868 0.0
0.917403139218 -1.27404133652 0.0
-0.917403111356 -1.27404131393 0.0
0.00629163698396 -1.12483402069 0.0
-0.0498172212649 -1.17740254314 0.0
0.196957098162 -1.23733146436 0.0
-0.0153111707128 -1.10713700493 0.0
0.00801121818762 -1.10548047325 0.0
0.0474734421675 -1.32820728768 0.0
-0.00257668473175 -1.10483993071 0.0
0.331132504415 -1.31703778972 0.0
-0.0133414559065 -1.1252116244 0.0
-0.176049296108 -1.16677287307 0.0
0.237365082571 -1.42941304789 0.0
-0.340358642054 -1.17772286464 0.0
0.192114276709 -1.16142438917 0.0
-0.25040415543 -1.43758268591 0.0
-0.275080611517 -1.17802594386 0.0
-0.124238153305 -1.14810217022 0.0
-0.0272101971748 -1.21982796202 0.0
0.149628530095 -1.33006180903 0.0
0.0996526346735 -1.36129206403 0.0
0.0754926259782 -1.1097820989 0.0
-0.115054477332 -1.24201263428 0.0
-0.14143055417 -1.2931451125 0.0
-0.0610688469673 -1.13620567655 0.0
-0.0408839565044 -1.12241209737 0.0
0.219203923937 -1.11918960657 0.0
0.0700547153248 -1.15807683237 0.0
-0.211298888936 -1.16464722036 0.0
-0.0535144758239 -1.27823629427 0.0
0.0649129295723 -1.10825653454 0.0
-0.340652947932 -1.32786794079 0.0
0.618372796542 -1.24491385471 0.0
-0.618375261636 -1.24490501032 0.0
0.0151792381605 -1.11931343787 0.0
0.33807830208 -1.1264011266 0.0
0.578096563634 -1.14384717342 0.0
-0.577073894103 -1.14299870575 0.0
0.020486060589 -1.10559535904 0.0
0.0275461930069 -1.2115931715 0.0
-0.342659212075 -1.43751130022 0.0
-0.102894580055 -1.17143341146 0.0
0.365706817442 -1.23501398969 0.0
0.335634419859 -1.43439344389 0.0
0.118756876334 -1.23706561277 0.0
0.101876965297 -1.10944919512 0.0
0.246065924389 -1.31002492706 0.0
2.96649658024e-05 -1.36108041246 0.0
0.523996648675 -1.32495250098 0.0
-0.523656063877 -1.32420032742 0.0
-0.468572350031 -1.13469893206 0.0
-0.101993402997 -1.11054812222 0.0
0.250178082773 -1.15536727027 0.0
-0.435538825962 -1.43700778222 0.0
0.431050080751 -1.43298323348 0.0
-0.195640354789 -1.11821374998 0.0
0.173452707971 -1.1165858346 0.0
-0.924285164959 -1.1714931796 0.0
[...]
POINT_DATA 407
VECTORS Displacement float
0.0 0.0 0
0.0 0.0 0
0.000296188161337 -4.34602295365e-05 0
1.4231356819e-05 -0.0168613888957 0
-0.000297841913433 -4.46170976117e-05 0
0.0 0.0 0
0.0 0.0 0
0.0 0.0 0
0.0 0.0 0
0.0 0.0 0
0.0 0.0 0
0.0 0.0 0
0.0 0.0 0
0.0 0.0 0
0.0 0.0 0
0.0 0.0 0
0.0 0.0 0
0.0 0.0 0
0.0 0.0 0
0.0 0.0 0
0.0 0.0 0
0.0 0.0 0
0.0 0.0 0
0.0 0.0 0
0.000104739132769 -5.21065425892e-05 0
0.000188920919751 -5.47873265033e-05 0
0.00024492044042 -4.59977019353e-05 0
0.000294053857979 7.11340296228e-06 0
0.000283197486514 5.53360414095e-05 0
0.000258878630742 9.41437757458e-05 0
0.000214532279127 0.0001139368466 0
0.000146832152764 0.000101009376164 0
3.27075969919e-05 4.97966706106e-05 0
-9.74413386732e-05 -6.76070749095e-05 0
-0.000267028910482 -0.000258704736102 0
-0.000460636567747 -0.000523926929218 0
-0.000673587559226 -0.000887213384381 0
-0.000938323658334 -0.00133358325474 0
-0.00119938387623 -0.00189884763438 0
-0.00143318996899 -0.00256766564889 0
-0.00167947795382 -0.00334557657519 0
-0.00193914498271 -0.00423930453028 0
-0.00215107530312 -0.00527746921451 0
-0.0023679939925 -0.00650954985525 0
-0.0024524462631 -0.0079455357997 0
-0.00238470094531 -0.0100402705973 0
-0.00221925906166 -0.0116804041497 0
-0.00198204005768 -0.0129715701863 0
-0.00173561579042 -0.0139815596949 0
-0.00149598774994 -0.0147608475891 0
-0.0012652784806 -0.01537343345 0
-0.00106457556749 -0.015839375129 0
-0.000868457360062 -0.0161845728908 0
-0.000680047328192 -0.0164369059944 0
-0.000517077413817 -0.0166158263611 0
-0.000361049421339 -0.0167371371381 0
-0.000225533903013 -0.0168107049348 0
-9.86114107129e-05 -0.0168489012163 0
0.000130835979455 -0.0168496870778 0
0.000254779371067 -0.0168106137451 0
0.000389406607221 -0.016736469586 0
0.000544903195255 -0.0166154610495 0
0.000710164926631 -0.0164367958602 0
0.000894661396954 -0.0161844570028 0
0.00109197182426 -0.0158389548365 0
0.00130177659482 -0.0153732150034 0
0.0015154306846 -0.0147605256093 0
0.0017579000352 -0.0139819067069 0
0.00199945180313 -0.0129726893225 0
0.0022316308706 -0.0116806563989 0
0.00241405717729 -0.0100449669561 0
0.00244940732982 -0.00794430302025 0
0.00234911513202 -0.0064874710513 0
0.00217656890299 -0.00529280292449 0
0.00191976770129 -0.00423852534232 0
0.00168330774124 -0.00333856196528 0
0.00142067035587 -0.00256498297006 0
0.00118427912806 -0.00189422862457 0
0.000918482076117 -0.00133451910559 0
0.000687249655924 -0.000879118593384 0
0.000462751443557 -0.000523886584239 0
0.000263180705305 -0.00024696607634 0
8.48531799631e-05 -6.77126569054e-05 0
-4.09797476259e-05 4.45009980697e-05 0
-0.000149599963219 9.70881654849e-05 0
-0.000217064791026 0.000112909213652 0
-0.00026096483113 9.31611009479e-05 0
-0.000284964998935 5.44307320824e-05 0
-0.000295715629736 6.19696227548e-06 0
-0.000246238288887 -4.7146850445e-05 0
-0.000189766444998 -5.57533060054e-05 0
-0.000105135585893 -5.26783652938e-05 0
-3.9820343358e-05 -0.00668523409058 0
-0.00159577196262 -0.00332507419102 0
0.00161587959773 -0.00358056104362 0
-3.14053304685e-05 -0.0111894551991 0
0.0011483775072 -0.00851150572463 0
-0.00108192778643 -0.00862317873517 0
0.000937065212518 -0.000602886018489 0
-0.000933633721432 -0.000577805020939 0
0.000301793377308 -0.0127538278447 0
9.83859115962e-06 -0.0142039632145 0
-0.000178393254963 -0.0129348028905 0
-0.000921145874833 -0.00448243869368 0
0.000994412172119 -0.004548913019 0
0.000437050468811 4.80048614635e-05 0
-0.000435727614756 4.88824875044e-05 0
-0.000244493820037 -0.0105132591483 0
-8.52425829334e-05 -0.0150387413189 0
3.44992099078e-05 -0.0155183328842 0
0.00018508549748 -0.015077841704 0
0.000226227603746 -0.0114635198032 0
-0.000202767863846 -0.00703029445426 0
-0.000605485109889 -0.00143236586844 0
0.000245799272594 -0.00212885347929 0
0.000114291309097 -0.0083186851112 0
0.000235013432107 5.4218560625e-05 0
-0.000235519297915 5.34307243646e-05 0
-0.000352221161899 -0.0149518671787 0
-0.000426059199465 -0.000131666404571 0
0.000389501742383 -0.000105820579397 0
0.000298929115029 -0.0129202310352 0
-0.00116931242629 -0.00574909146197 0
0.000312912024444 -0.000560346984654 0
-8.55343448246e-05 -0.0160819813956 0
8.53144096681e-05 -0.00285651638162 0
0.00115635373657 -0.00540594503367 0
0.000206092952551 -0.015975802436 0
-0.000125969815639 -0.000575430788488 0
0.000453438358665 -0.0144927877982 0
0.000727358317427 -0.00949829822281 0
0.000367190817 -0.00466773680009 0
-0.000405155433576 -0.00578075697612 0
-0.000314647061342 -0.00359815612616 0
-0.000688041808642 -0.0104230079795 0
-0.000618796884468 -0.0139948325845 0
4.79851923557e-05 -0.0162625564883 0
-0.00027681341208 -0.0160149627407 0
0.00127254244546 -0.00107532734237 0
0.00124653769652 -0.00181704555214 0
-0.00123889898854 -0.00103766810465 0
0.000280089782426 0.000110392155364 0
-0.000281393043703 0.000109008978204 0
-0.000447069601133 -0.00291729999096 0
-0.000236693143438 -0.0125166754784 0
0.000502116710948 -0.00321447107519 0
0.00115860320076 -0.00225740299405 0
0.000664679016783 -0.000133996204737 0
-0.000666291277851 -0.000133722854356 0
0.000274666624222 0.00010396694281 0
-0.000280660637347 0.000103499271718 0
-0.000631538005256 -0.0114704408462 0
-0.00117111656819 -0.00237093088721 0
-0.000356533381739 -0.00843194925034 0
-0.00148306952516 -0.0052481864603 0
0.000431502838692 -0.0103929448212 0
0.000482608326442 -0.0156199860156 0
-0.000264663096713 2.68252126919e-05 0
0.000266897071803 2.73371533401e-05 0
-0.00133679687601 -0.00258835940758 0
-0.000250204410631 3.89946006116e-05 0
0.000248888060579 3.99079038987e-05 0
0.000102425797842 -0.00149755262464 0
-0.00107777997828 -0.00759697799872 0
0.00150077313332 -0.00534871051701 0
0.00107000418231 -0.0066688488905 0
0.000172593631423 -0.0124402851413 0
-0.000465616911499 -0.0156109197942 0
-6.56540894562e-05 -0.00117072831543 0
-8.15566495849e-05 -0.0137620058288 0
8.33117621469e-05 -0.0131236607099 0
-0.00121210283343 -0.0063945457609 0
0.00073498178932 -0.0106410156524 0
-0.00014908754797 3.6604416291e-06 0
0.000148710803418 4.14572722642e-06 0
-0.000749961134335 -0.0106293728765 0
-0.00112011894565 -0.00137661804367 0
0.00117698450728 -0.00276830526915 0
0.000782878953764 -0.00128413746895 0
2.69572958488e-05 -0.0146664699054 0
0.000714424984423 -0.0121588685442 0
-0.000648166992364 -0.0129422342765 0
0.000376305482172 -1.68476734966e-05 0
-0.000375921697497 -1.65108458144e-05 0
-2.76311748221e-05 -0.000346516143717 0
9.4464127288e-05 -0.0136816407678 0
6.1969435396e-05 -0.0139846460469 0
0.000881717786375 -0.00873867170197 0
0.000358316591656 -0.0160633004069 0
-0.000531361845585 -0.00213828835353 0
0.000256823377818 8.12375007222e-05 0
-0.000258053252482 8.01577624349e-05 0
0.000950268432721 -0.000461070795286 0
0.000202136734377 -0.00914782946429 0
-0.000929938774297 -0.000439177815566 0
0.000957295182158 -0.0145056063817 0
0.0011280442607 -0.00764604459889 0
0.00087182663037 -0.00707873252118 0
-0.000838354290196 -0.00867735806439 0
0.000166590060955 3.69670379156e-05 0
-0.000148187655959 3.60270504506e-05 0
-0.00018359417855 -0.000234748062783 0
0.00070870341752 -0.000154121992051 0
-0.000701525981004 -0.000163600791759 0
-0.000723880817129 -0.0149761133483 0
6.58386665471e-05 -0.0141310495791 0
-0.000224860879628 -0.0163705366395 0
0.000549570536437 -0.00213883722297 0
-0.00013324667551 1.53167727799e-05 0
0.000133210445277 1.55852683343e-05 0
1.32549482814e-06 -0.0148006192663 0
-0.000764192062462 -0.00825087714034 0
0.00023055813192 0.000125130420081 0
-0.000233951679266 0.000123829287359 0
-3.19850923567e-05 -0.0165096845101 0
0.000891259982864 -0.0037035388461 0
0.000156299774985 -0.016445029095 0
-0.00101087704976 -0.00467648480763 0
-0.000446726105168 -0.0160838215973 0
-0.00119528315841 -0.0106097443627 0
0.000330568346617 -0.00102248041554 0
0.000851829803732 -0.013468592077 0
0.00114578818629 -0.00890010046785 0
0.000607959741439 -0.0152274443518 0
0.000536774586094 -0.00312463632424 0
-0.000827856521063 -0.00292971549698 0
-0.000645190042737 -0.000826633423059 0
-0.000158567686856 -0.000728347259043 0
-0.000143756036835 -0.0128563002242 0
-0.000692319987857 -0.0155802172773 0
-0.00142224016914 -0.00196431030377 0
0.000665109011673 -0.0072080277682 0
0.000469232760881 -0.0114055338127 0
0.000225761957567 -0.0099773649016 0
-0.0014601312597 -0.00178217348847 0
-0.000535444557738 -0.00150441767135 0
5.41109439199e-05 -0.000133767345374 0
0.000248439428591 0.000110077112377 0
-0.000250702926697 0.000108912327114 0
0.00143143994138 -0.00199714897281 0
-0.000627034251955 -0.00515893823946 0
0.000439152513569 3.57427155797e-05 0
-0.000828763874855 -0.00307146882447 0
-0.000425638538628 3.77003609942e-05 0
-7.47200314931e-05 -0.0124378264797 0
0.000984843741107 -0.00554509426948 0
-0.00136280241702 -0.00395370004536 0
-0.000262224023849 -0.0119113695721 0
-0.00102805637511 -0.00682577318894 0
-0.000546053066587 -0.000367187474538 0
0.000289183654607 -0.000648967065233 0
0.000597265410377 -0.000368293713768 0
0.000515797343464 -0.00636018643156 0
-0.000252888992127 -0.0154426891503 0
0.000909454275302 -0.00287499739093 0
0.000330264620509 7.60497241952e-05 0
-0.00032892554564 7.50222710502e-05 0
0.000209250673063 -4.25843343027e-06 0
-0.000210161114292 -5.06057287537e-06 0
-3.33871206007e-05 -0.0154519681713 0
-0.000491160894044 -0.0116964103392 0
0.00139212490445 -0.0040263906219 0
0.000281694625454 -0.0163689582477 0
-0.000132582652589 -0.0165305876885 0
0.000619116969096 -0.00516806504133 0
6.30257121948e-05 -0.0165921739717 0
0.00121630440815 -0.000947782788954 0
0.000108270980163 -0.0153815613495 0
-0.000492109885255 -0.00545767868051 0
0.000954620443783 -0.000882135166937 0
-0.000206935634975 -0.00102917603768 0
0.00026321194309 -0.00470939092808 0
-0.000846620368065 -0.000746076693738 0
-0.000298065423027 -0.00209597042482 0
-0.000257048770838 -0.0089456934658 0
-0.000415994192866 -0.0100175065938 0
0.00144784614221 -0.00360308953899 0
0.00101606097666 -0.00356871040932 0
-0.00110756571253 -0.0139423580643 0
-0.00140150173568 -0.00679739169624 0
-0.00151148167872 -0.00465499420155 0
0.000112119675994 -0.0133963751533 0
0.000350966558841 -0.0149370591276 0
-0.0011360728675 -0.0037049763694 0
0.000413904032779 -0.0118999689823 0
-0.000247789899633 -0.0039177043744 0
-0.000741061593001 -0.00703143958722 0
-0.00103085030732 -0.0146319890842 0
-0.00118171277569 -0.000845692512855 0
0.00033597383153 0.000102817823733 0
-0.000336407977755 0.000101242706628 0
-0.000138589108358 -0.0156898531634 0
-0.000476400083224 -0.00108952858761 0
0.000169511548544 0.000100582326982 0
-0.000167633186002 9.51922247344e-05 0
-0.000361156399056 -0.0163765969557 0
0.000378972246251 -0.0104100664348 0
-0.000700394006199 -0.000381239341913 0
-0.000738364103363 -0.00959096149165 0
0.000718404396857 -0.000735654421316 0
0.000742456086861 -0.00042822467273 0
0.001360930281 -0.00681877722076 0
-0.00143773267444 -0.0120005105484 0
0.00150888536759 -0.00212486843795 0
2.1662801097e-05 -0.00416207625167 0
0.000572498277862 -3.71955334757e-05 0
-0.000570723504804 -3.57046010646e-05 0
1.77992073373e-05 -0.000114231963668 0
0.00137225561177 -0.0119454453267 0
-0.000112639387395 -0.00272273228038 0
-0.00050496433515 -0.000165461836284 0
0.000538780363625 -0.000182817124379 0
0.00123176925014 -0.00463526769246 0
-0.00134633008639 -0.00575109635981 0
-0.000261547762879 -3.66886879849e-06 0
0.000260104792722 -2.71720001742e-06 0
-0.00109633794578 -0.00377976683758 0
0.00079542027044 -0.00203776353188 0
-0.000263736866171 -0.0127967839192 0
0.00143488467576 -0.0105569939527 0
0.0014809932238 -0.00532901597173 0
0.000412587053012 -0.0164216708646 0
0.000611288819017 -0.00153374295342 0
0.000704504435835 -0.0102448772089 0
0.000529907979627 -0.0162063839419 0
0.000683755928931 -0.0160479465936 0
0.00130530477058 -0.0131410661125 0
-0.000628288368661 -0.0159941005443 0
0.000228467791612 -0.0156184263857 0
-7.30095447667e-05 -0.00165824490002 0
9.85144056838e-05 -0.011742861929 0
-0.00123365182874 -0.0129228930635 0
0.000880408112738 -0.00969047035104 0
0.000276386640909 8.16264579773e-05 0
-0.000276430617147 8.04696344483e-05 0
9.20205833136e-05 -0.0159280405445 0
0.000633230181072 -0.00191569019283 0
0.000918628787391 -0.0152580424674 0
-0.000862093634733 -0.00216587848184 0
2.49524875429e-05 -0.0149993298946 0
-0.000251676645886 -0.0140032468009 0
-0.00101565223761 -0.00900494723301 0
4.67185267972e-05 -0.0144429282289 0
0.000652969128189 -0.007929669186 0
0.000210194494438 -7.54742498339e-06 0
-0.0002096099334 -7.5529087733e-06 0
6.23433346465e-06 -0.0158708515766 0
0.00101664986318 -0.00102665337664 0
0.000886952121703 -0.000353942480333 0
0.00131137952214 -0.00544113346266 0
2.79113304724e-05 -0.0132957228952 0
0.000128374382228 -0.000351403282927 0
0.000307506312673 -0.00825372324595 0
-0.000345989145979 -0.00971469097939 0
-0.000132311274864 -0.0147217231598 0
-0.000881551528909 -0.000348794024512 0
0.000291540082105 -0.000299871035118 0
-0.00131643665898 -0.00504598925616 0
-0.000764780547545 -0.00880401781688 0
-0.000701288456873 -0.00185935965787 0
0.000378504794909 3.35470397885e-05 0
-0.000377384297523 3.38689234565e-05 0
-6.96264926994e-05 -1.08698931401e-05 0
6.94495296147e-05 -1.06010596836e-05 0
0.000371225983898 -6.88767062885e-05 0
-0.000370275387624 -6.92137776192e-05 0
-0.000342090671059 -0.01134196197 0
-6.00297077282e-05 -0.0135194600923 0
0.000179285698281 -0.00577508990945 0
0.000182014907422 -0.00182419048664 0
-0.000271322226502 3.55909273262e-05 0
0.000269688783242 3.65019013723e-05 0
-0.000153818144025 -0.00698074694739 0
0.000460843783786 -0.0137914723984 0
-8.94889635218e-05 1.53601191022e-06 0
8.93732733076e-05 1.76379006389e-06 0
-0.00147667521727 -0.00316189813422 0
-0.00022003564352 3.3087904292e-05 0
0.000219247384611 3.38680616491e-05 0
0.000641470058433 -0.00853645272179 0
0.000148084176906 -2.21497990256e-05 0
-0.000148602522209 -2.27640426898e-05 0
0.000771306978526 -0.0157197132155 0
-0.000235345415551 4.15458591866e-05 0
0.00023568400727 4.22646360729e-05 0
-0.000827027759588 -0.00120097533125 0
1.96022619956e-05 -0.0144227126843 0
0.000572127322249 -0.0114378358901 0
0.000145052172159 3.97799141549e-06 0
-0.000144875692328 3.86005546186e-06 0
-0.000213708384212 -0.0118735301339 0
0.00143865660858 -0.00281534542591 0
-0.000194305781149 -7.8344553571e-05 0
0.000236930497533 -0.0128642866334 0
0.000349195395702 -0.000955355075782 0
-0.000213245886146 -0.00120472444877 0
0.00130335620099 -0.00700003011495 0
-0.000445577239473 -0.0118372964639 0
0.000377114824634 -0.00149720739453 0
-0.000697196194704 -0.0068124829651 0
-3.75105475744e-05 -0.013988323363 0
0.000259252511662 7.36164728378e-05 0
-0.000261042900605 7.26216434668e-05 0
-0.00018134677494 2.54193163596e-05 0
0.0001811216027 2.59344377619e-05 0
0.00128467706415 -0.0140700880291 0
0.000639740263133 -0.00100290535652 0
SCALARS EPSXX float
LOOKUP_TABLE default
2.3911804747e-05
2.32044752686e-05
6.6888013941e-06
-0.0209377033032
6.44350598451e-06
-5.36149349027e-05
-0.000216485870584
-0.000204305576546
-0.000636422078161
-0.000612559127241
-0.000683579897855
-0.000503356589862
0.000192922699631
0.00172528002031
0.00146347924091
0.00204357474636
0.000206546418787
-0.000504923888973
-0.000734690579697
-0.000628770552048
-0.000637581720294
-0.000205297944649
-0.000217462745497
-5.38657028515e-05
1.26449052631e-05
-5.24244037519e-05
-3.12587661045e-05
6.18923666813e-05
0.000186495649108
0.000351575752908
0.000627866121657
0.001171294725
0.00173946119384
0.00227532964625
0.0031794988787
0.00375273598589
0.0052780549645
0.00635534682489
0.0061935027891
0.00630314820106
0.0074360295626
0.00704703831804
0.00658369111894
0.00492965505857
-0.00318860447844
-0.00720730622307
-0.0120731366371
-0.0152905509749
-0.0168235303606
-0.0185153498686
-0.0182255899111
-0.0187793386164
-0.0205430954117
-0.020564187231
-0.0206734585446
-0.0207432654385
-0.0207013635204
-0.0207438583299
-0.0209067295116
-0.0201430632288
-0.0210198972167
-0.0210745274334
-0.0208841216434
-0.0208562571362
-0.0197842119999
-0.0183556969263
-0.0179132447704
-0.0173745716789
-0.0148669253126
-0.0120139652604
-0.00628216468784
-0.00273956394397
0.00240347711647
0.00724370181679
0.00748545255302
0.00715322821521
0.00675421306122
0.00635176741878
0.00584460803495
0.00494274041175
0.00432633971286
0.00342997150672
0.00245297132443
0.00173112890032
0.00116264893655
0.000619473837443
0.000346087127821
0.000183774576646
6.1052288632e-05
-3.10406559816e-05
-5.14265983928e-05
1.4091311966e-05
0.0136204604704
-0.000872066249783
-8.1148269861e-05
0.013530962729
0.00613131215887
0.00391742701329
-0.0034203898258
-0.00339406711352
0.00569638049671
0.00226819954611
0.00306054104615
-0.00494885012381
-0.00481006397116
-0.0015512287696
-0.00150261324511
0.00157338919552
-0.00414700300114
-0.00789588945197
-0.00560739217846
0.00200842503097
-0.00559877831017
-0.00264763936585
-0.00214319195725
-0.00522132328538
-0.000513126560893
-0.000508945712798
-0.00804444880575
-0.00119335684031
-0.000900651579201
-0.00240061655826
0.00907761242032
-0.000549321798043
-0.0132763394825
-0.00133780740717
0.00869037356285
-0.0130407972324
0.000288712965236
-0.00713061782384
0.0121641341977
-0.00309218975297
-0.00509129117271
-0.00184234147706
0.0109347308053
-0.00788825334833
-0.0146847906164
-0.0137068673377
-0.00247475627646
-0.0040369915775
-0.00244260423503
-0.000355089249005
-0.000355900323764
0.00839139188533
0.00868807858111
0.00850204730515
0.00291262639517
-0.00267780439128
-0.00265052624901
-0.000131822927698
-0.000113482085599
-0.00423376414078
0.00365217016233
0.0142107744848
0.000455064855327
-0.00299618263958
-0.0123470630676
-0.00109538811341
-0.00110393302137
-0.00359090926474
-8.71636345651e-05
-8.64377624261e-05
0.000481276554425
0.0104291433363
0.0006850841457
-0.00242377004285
0.0106764735067
-0.0128854786086
0.00091305224326
0.00330889919395
0.00103115173006
-0.000611473944825
0.00716522355256
-0.000222651238285
-0.000224291451103
0.00631267258272
-0.00387381649962
-0.00433841425701
-0.00341530989073
-0.000317446495237
-0.00441104247556
-0.00580128364924
-0.0017867380887
-0.00179413383332
0.00195456277655
0.00492687393726
0.00204195479801
0.00131810369803
-0.0145193697295
0.00282156163881
-0.000226795626137
-0.000226905024975
-0.00315221342839
0.014462885031
-0.00304645448897
-0.0125803158879
0.0094751121758
-0.00498946153055
-0.00669780885911
0.000570255965665
0.000908611454918
0.00036111703806
-0.00258531231459
-0.00260520191424
-0.0122188711067
-0.000852222318794
-0.0164727945146
0.0024265733053
-0.000493633325175
-0.00049642112747
-0.00232248576008
-0.000709955137003
0.000266384937279
0.000260631686469
-0.0177055180048
0.00141653663694
-0.0167301861579
4.46647482216e-05
-0.0163651179791
-0.00667310006274
0.00264127086813
-0.00819245813303
-0.00593844231366
-0.0119415487403
-0.00420335714924
0.0031089022414
-0.00261760237764
0.00212876792015
-0.00125299301653
-0.0152584878928
-0.000249276922214
0.0128785705336
0.0104090650289
-0.000485378975853
-0.00289981435282
0.00372981238421
0.00135556571711
0.000170816143337
0.000162583450585
9.24080869612e-05
0.011360357779
-0.00134993450277
-0.00417878934944
-0.00123205066213
0.0103517748143
-0.000939244344383
-0.00334282600557
0.002294479826
-0.00419934999213
-0.00186770817025
0.00329707109997
-0.00222780198555
-0.00550678137179
-0.0093076115928
0.00386899354403
-0.0010749416733
-0.0010639472516
-8.37441641657e-05
-8.3097738137e-05
-0.00668323034364
0.00941252308996
-0.00289860253352
-0.0179258529282
-0.0184415768059
0.0113023809578
-0.0188141737571
-0.00369324265981
-0.00681230854981
-0.00504273106146
-0.000184139600069
-0.000498595970008
-0.00510824045357
-0.000602420081291
-0.0022229125244
-0.00142765068981
0.0139651572209
0.00366887526798
0.00726130198901
-0.012721239882
0.00513735322419
0.00417789377228
-0.0011809581403
-0.00747422188229
0.00341962896273
0.00439491590084
-0.00421910143832
0.012805926996
-0.014874783102
-0.00368526199422