# vtk DataFile Version 2.0
Generated with Solid Solver
ASCII
DATASET UNSTRUCTURED_GRID
POINTS 1757 float 
1.0 0.0 0.0
0.0 -1.0 0.0
-1.0 0.0 0.0
0.0 1.0 0.0
-0.995380413423 -0.0960095441785 0.0
-0.98261780075 -0.185640129414 0.0
-0.96322958769 -0.268679663165 0.0
-0.938560776953 -0.345113992712 0.0
-0.90978672778 -0.415076029126 0.0
-0.877921711568 -0.478804206705 0.0
-0.843830985157 -0.536609046223 0.0
-0.808244689242 -0.588846773203 0.0
-0.771772366024 -0.635898903162 0.0
-0.73491739518 -0.678156635492 0.0
-0.698090641905 -0.716009396366 0.0
-0.661623210588 -0.749836466979 0.0
-0.6257779638 -0.780001243603 0.0
-0.590759898542 -0.806847409536 0.0
-0.55672527119 -0.83069667895 0.0
-0.523789567821 -0.851847690988 0.0
-0.4920344724 -0.870575716391 0.0
-0.461513788672 -0.887133035607 0.0
-0.432258543883 -0.901749716518 0.0
-0.404281323176 -0.914634687584 0.0
-0.377579883859 -0.925977014458 0.0
-0.352140279087 -0.935947233472 0.0
-0.327939363362 -0.944698774191 0.0
-0.304946964352 -0.952369334309 0.0
-0.283127619241 -0.959082244243 0.0
-0.262442049932 -0.964947755284 0.0
-0.24284833385 -0.970064269389 0.0
-0.224302876543 -0.974519481373 0.0
-0.206761193898 -0.978391439403 0.0
-0.190178533755 -0.981749522688 0.0
-0.174510373217 -0.984655335455 0.0
-0.159712796062 -0.987163523827 0.0
-0.145742818731 -0.989322511009 0.0
-0.132558585798 -0.99117517187 0.0
-0.120119553476 -0.992759433535 0.0
-0.108386608834 -0.994108818503 0.0
-0.0973221399841 -0.995252933213 0.0
-0.0868900892702 -0.996217904068 0.0
-0.0770559742282 -0.997026768365 0.0
-0.0677868864448 -0.997699823607 0.0
-0.0590514752917 -0.998254939014 0.0
-0.0508199228057 -0.998707832875 0.0
-0.0430639085463 -0.999072319595 0.0
-0.0357565614578 -0.999360529695 0.0
-0.0288724199598 -0.999583104782 0.0
-0.0223873675603 -0.99974937148 0.0
-0.0162785878776 -0.99986749501 0.0
-0.0105245046693 -0.999944615867 0.0
-0.00510472847989 -0.999986970789 0.0
0.00510472847988 -0.999986970789 0.0
0.0105245046693 -0.999944615867 0.0
0.0162785878776 -0.99986749501 0.0
0.0223873675602 -0.99974937148 0.0
0.0288724199598 -0.999583104782 0.0
0.0357565614578 -0.999360529695 0.0
0.0430639085462 -0.999072319595 0.0
0.0508199228056 -0.998707832875 0.0
0.0590514752916 -0.998254939014 0.0
0.0677868864446 -0.997699823607 0.0
0.077055974228 -0.997026768365 0.0
0.08689008927 -0.996217904069 0.0
0.0973221399839 -0.995252933213 0.0
0.108386608834 -0.994108818503 0.0
0.120119553476 -0.992759433535 0.0
0.132558585798 -0.99117517187 0.0
0.145742818731 -0.989322511009 0.0
0.159712796061 -0.987163523827 0.0
0.174510373217 -0.984655335455 0.0
0.190178533754 -0.981749522689 0.0
0.206761193898 -0.978391439403 0.0
0.224302876542 -0.974519481373 0.0
0.24284833385 -0.97006426939 0.0
0.262442049931 -0.964947755284 0.0
0.28312761924 -0.959082244244 0.0
0.304946964351 -0.95236933431 0.0
0.32793936336 -0.944698774191 0.0
0.352140279085 -0.935947233473 0.0
0.377579883857 -0.925977014459 0.0
0.404281323174 -0.914634687584 0.0
0.432258543881 -0.901749716519 0.0
0.46151378867 -0.887133035608 0.0
0.492034472398 -0.870575716392 0.0
0.523789567819 -0.851847690989 0.0
0.556725271188 -0.830696678951 0.0
0.590759898539 -0.806847409538 0.0
0.625777963797 -0.780001243606 0.0
0.661623210585 -0.749836466982 0.0
0.698090641902 -0.716009396369 0.0
0.734917395177 -0.678156635496 0.0
0.771772366021 -0.635898903165 0.0
0.80824468924 -0.588846773206 0.0
0.843830985155 -0.536609046227 0.0
0.877921711566 -0.478804206707 0.0
0.909786727779 -0.415076029129 0.0
0.938560776952 -0.345113992715 0.0
0.96322958769 -0.268679663167 0.0
0.98261780075 -0.185640129415 0.0
0.995380413423 -0.0960095441792 0.0
0.995184726672 0.0980171403292 0.0
0.980785280403 0.195090322016 0.0
0.956940335732 0.290284677254 0.0
0.923879532512 0.382683432364 0.0
0.881921264349 0.471396736825 0.0
0.831469612303 0.555570233018 0.0
0.773010453364 0.634393284162 0.0
0.707106781188 0.707106781185 0.0
0.634393284165 0.773010453362 0.0
0.555570233021 0.831469612302 0.0
0.471396736827 0.881921264348 0.0
0.382683432366 0.923879532511 0.0
0.290284677255 0.956940335732 0.0
0.195090322016 0.980785280403 0.0
0.0980171403296 0.995184726672 0.0
-0.0980171403292 0.995184726672 0.0
-0.195090322016 0.980785280403 0.0
-0.290284677254 0.956940335732 0.0
-0.382683432364 0.923879532512 0.0
-0.471396736825 0.881921264349 0.0
-0.555570233018 0.831469612303 0.0
-0.634393284162 0.773010453364 0.0
-0.707106781185 0.707106781188 0.0
-0.773010453362 0.634393284165 0.0
-0.831469612302 0.555570233021 0.0
-0.881921264348 0.471396736827 0.0
-0.923879532511 0.382683432366 0.0
-0.956940335732 0.290284677255 0.0
-0.980785280403 0.195090322016 0.0
-0.995184726672 0.0980171403296 0.0
-4.96996675457e-15 -1.93548667772e-12 0.0
0.00127619043384 -0.500000000001 0.0
-0.00722089405625 -0.748268261399 0.0
0.00228876066458 -0.875556181739 0.0
-0.281695474279 -0.627991907605 0.0
0.276565504347 -0.648709845297 0.0
0.165521166582 -0.808905078842 0.0
-0.152585357215 -0.822741196601 0.0
0.315604058399 -0.24609675106 0.0
0.102417520922 -0.891264985708 0.0
-0.475635334484 -0.159294667465 0.0
-0.0835204948431 -0.904755269877 0.0
-0.00325062230283 -0.936932840139 0.0
0.443692867126 0.230749263633 0.0
0.0519377913903 -0.943993046933 0.0
-0.376036192266 0.329953197425 0.0
-0.0521516255689 -0.947879580655 0.0
0.515606575531 -0.501630943311 0.0
-0.240308280436 -0.343851039704 0.0
-0.533518994474 -0.465307197087 0.0
-0.287804041658 -0.805642358412 0.0
0.0445238380782 0.430295701266 0.0
0.311896404579 -0.800379386155 0.0
-0.13107597474 -0.667419094267 0.0
0.123108305654 -0.661752158477 0.0
0.0628248294012 -0.806365098603 0.0
0.187292166309 -0.484108441138 0.0
-0.0641832406134 -0.819165573216 0.0
0.0798579288498 -0.275607470425 0.0
0.638459931996 -0.202013346611 0.0
0.0186626287027 -0.965141212843 0.0
0.45526094991 -0.681833875225 0.0
-0.0129772315159 -0.968247403008 0.0
-0.171540104927 -0.497908016167 0.0
-0.155127552345 -0.915207147269 0.0
0.183001231559 -0.901567275323 0.0
-0.426144747324 -0.715098931219 0.0
-0.0162892183335 -0.624792928552 0.0
-0.035730323476 -0.903037334438 0.0
-0.232827639067 -0.88874456779 0.0
0.0975199139805 -0.95072651026 0.0
-0.0981552596427 -0.949236823345 0.0
-0.648667569896 0.129148118328 0.0
-0.279554044891 0.0627654755135 0.0
0.273151102826 0.0171449977907 0.0
0.0298555050875 -0.90994366709 0.0
-0.212344149878 -0.737463281314 0.0
-0.229946357699 0.611891537337 0.0
0.354045803606 0.561510173556 0.0
-0.0818860901218 -0.36457251704 0.0
-0.134091639038 -0.159199321554 0.0
-0.695625031714 -0.277606106328 0.0
-0.0867851478723 -0.736672431226 0.0
0.265337120787 -0.869981074022 0.0
0.348760961551 -0.493554128188 0.0
-0.00320990135474 -0.812594716229 0.0
-0.329186847098 -0.471221989663 0.0
0.0460713866435 -0.972062035364 0.0
-0.0375937409611 -0.973405027164 0.0
0.0535682648895 -0.864336593337 0.0
0.145483624803 -0.941368692522 0.0
0.0736239261235 -0.727615112901 0.0
0.697430582005 0.0837555012036 0.0
-0.100737206717 0.233330119735 0.0
-0.556100193995 -0.633724671947 0.0
0.00232821863967 -0.980465167455 0.0
0.0749759373331 -0.577439211916 0.0
0.680855415879 -0.415051663416 0.0
0.206146806604 -0.718315341021 0.0
-0.421930988685 -0.574802042479 0.0
0.11279966401 0.192512083541 0.0
0.460339190007 -0.0980710125314 0.0
0.0312756254498 0.706087755727 0.0
-0.040272424356 -0.858092004677 0.0
0.420061865811 -0.786049287866 0.0
0.586966069727 -0.62991917776 0.0
-0.380981551573 -0.827227698018 0.0
-0.103259760795 -0.570508864702 0.0
0.492756350161 -0.313708161781 0.0
0.0874955387678 -0.404713379013 0.0
-0.407564399695 -0.320423699857 0.0
-0.628919985203 0.391318787041 0.0
-0.0699640992687 -0.968896636178 0.0
-0.125152864878 -0.868227961676 0.0
0.0682876879855 -0.909252863859 0.0
0.0266399275605 -0.939207803 0.0
0.024631671702 -0.683106747508 0.0
0.189737416738 -0.13866360915 0.0
0.585215188034 0.450819219258 0.0
0.21785306249 -0.351336809722 0.0
-0.0271807897333 -0.946087422773 0.0
0.0756038792145 -0.966069497566 0.0
-0.298382974098 -0.178452310631 0.0
0.110518716749 -0.836650464469 0.0
-0.00264273972314 -0.90600804268 0.0
-0.305474440976 -0.716515505544 0.0
-0.134098046274 -0.954681405258 0.0
-0.223207038653 -0.817004808206 0.0
-0.447544946165 0.557155518089 0.0
0.34051079299 -0.862151144016 0.0
-0.298042796814 -0.881681319918 0.0
-0.769097087 -0.0583313654367 0.0
0.235752952896 -0.800651841032 0.0
0.188159568073 -0.587366695661 0.0
-0.672181311867 -0.518770972668 0.0
0.114322329275 -0.778392343179 0.0
-0.194516208698 -0.591307758062 0.0
0.0187557175556 -0.983773357993 0.0
0.261285852013 0.368198218166 0.0
0.35743297867 -0.706299332218 0.0
-0.0373500264002 -0.698736700423 0.0
-0.0819440313114 -0.865476917287 0.0
-0.179035137098 -0.867736107652 0.0
-0.203508688916 -0.928442862871 0.0
-0.149960306607 -0.756327532646 0.0
-0.0384840194478 -0.780550639081 0.0
-0.451807703057 0.0482365390086 0.0
-0.0126098573182 -0.983928124157 0.0
0.235939510081 -0.91326563502 0.0
0.0215596456358 -0.841867333374 0.0
-0.184109888945 0.422443108965 0.0
0.374550658138 -0.601661169977 0.0
0.0128828283903 -0.160035124024 0.0
0.145394081967 -0.872900625084 0.0
-0.118308145889 -0.916653533869 0.0
0.0299899444326 -0.781967816991 0.0
0.193085013132 -0.848690188911 0.0
0.342764161569 -0.375186491603 0.0
0.139108539028 -0.721982686315 0.0
-0.520450424114 -0.742720287668 0.0
0.791510244481 -0.0614494340947 0.0
-0.0865753027393 -0.480543320587 0.0
-0.108780745819 -0.792998693675 0.0
-0.566281122187 -0.32470713474 0.0
0.186476176315 -0.941887746383 0.0
0.00180194513842 -0.95609312381 0.0
0.796826697394 -0.279168840706 0.0
0.679362570623 -0.539584903183 0.0
0.122771341382 -0.96395482973 0.0
0.247356495332 0.728704965441 0.0
-0.171736364808 -0.947995561586 0.0
0.500625473665 -0.745135744913 0.0
-0.0217695695247 -0.922438649325 0.0
-0.15066796653 -0.0133658365529 0.0
-0.0353924586132 -0.253896747296 0.0
0.281295316404 -0.720785267167 0.0
-0.454589975051 -0.800300057754 0.0
0.0865964804951 -0.48952242347 0.0
0.737591674888 0.295325894026 0.0
[...]
POINT_DATA 1757
VECTORS Displacement float
0.0 -0.12 0
-3.01345834538e-06 -0.11686150604 0
0.0 -0.12 0
0.0 -0.12 0
-7.65305909286e-05 -0.119849414311 0
-0.000118315771944 -0.119784626761 0
-0.000140270082882 -0.119742416275 0
-0.000146843994283 -0.119711356023 0
-0.000143780383049 -0.119683455437 0
-0.000134618427463 -0.119654432594 0
-0.000119597348161 -0.119625875206 0
-0.000100845519757 -0.119595358398 0
-7.87431382099e-05 -0.119562116066 0
-5.54502075442e-05 -0.119525526713 0
-3.05185655347e-05 -0.119486998278 0
-5.7297919246e-06 -0.119445135758 0
2.02364420915e-05 -0.119401009683 0
4.65279629342e-05 -0.119354641219 0
7.2195978683e-05 -0.119305165552 0
9.79949478903e-05 -0.119253495384 0
0.000122345830921 -0.119199707066 0
0.000146444812991 -0.119142814522 0
0.000170064286489 -0.119083553066 0
0.000191480540192 -0.119023984486 0
0.000213701914777 -0.118960883427 0
0.000234467410298 -0.118895096152 0
0.000255465791264 -0.118827594669 0
0.00027412504076 -0.118757488923 0
0.000292915298825 -0.118685375556 0
0.000310581581436 -0.118608282232 0
0.000327392082711 -0.118531630278 0
0.000344639067064 -0.118449246407 0
0.000360057837974 -0.118363064675 0
0.000376732087953 -0.118271625338 0
0.000390353938551 -0.118175107046 0
0.000406418574808 -0.118067661897 0
0.000420218486091 -0.117948849637 0
0.000434228127393 -0.11779837371 0
0.000434048585954 -0.117627774839 0
0.000417194209016 -0.117472515955 0
0.000391182158132 -0.117372921826 0
0.000365205593907 -0.117273753479 0
0.000335449148063 -0.117183034168 0
0.000301971533882 -0.117098593143 0
0.00026600329356 -0.117047135242 0
0.000231146861406 -0.117006300756 0
0.000199028264793 -0.116968051579 0
0.000167371473583 -0.116936054498 0
0.000136909996825 -0.116910423083 0
0.000106676241921 -0.116890692861 0
7.71126323938e-05 -0.116877229459 0
4.93095874734e-05 -0.116867332204 0
2.23704156489e-05 -0.116862456978 0
-2.78423008645e-05 -0.116861935014 0
-5.48996404921e-05 -0.116867812886 0
-8.25416995261e-05 -0.116878491014 0
-0.000111269406184 -0.116891792196 0
-0.000141951619542 -0.116911543657 0
-0.000172978754565 -0.116937190749 0
-0.000204255138109 -0.116969400408 0
-0.0002365623309 -0.117008380575 0
-0.000270736100871 -0.117049475846 0
-0.000307168422543 -0.117100495684 0
-0.000340051426908 -0.117184745391 0
-0.000370443360228 -0.117275233272 0
-0.00039660459609 -0.117373229079 0
-0.000420614465576 -0.117473624468 0
-0.000440323163876 -0.117626138503 0
-0.000434784973958 -0.1178001288 0
-0.000424273882378 -0.117949662255 0
-0.000411684599148 -0.118067757255 0
-0.000394431582711 -0.118174436571 0
-0.000379738191953 -0.118271951027 0
-0.000365598406288 -0.118363393755 0
-0.000349656547625 -0.11845020148 0
-0.000333593237047 -0.118532314526 0
-0.000314975750614 -0.11861074719 0
-0.000297693746849 -0.11868610344 0
-0.000279088936384 -0.118759224702 0
-0.000259134581738 -0.118829200272 0
-0.000239101550744 -0.118896590945 0
-0.000218383408861 -0.118961986856 0
-0.000196145292466 -0.119024726861 0
-0.000174143876854 -0.11908610646 0
-0.000150447054236 -0.119144777062 0
-0.00012611795095 -0.119200691252 0
-0.000101174928664 -0.119254671302 0
-7.64812465242e-05 -0.119306899874 0
-5.05411399119e-05 -0.119356028459 0
-2.44563110078e-05 -0.119402820331 0
1.04611662884e-06 -0.119447534449 0
2.71881485123e-05 -0.119488465384 0
5.17835913246e-05 -0.119527666373 0
7.55044818526e-05 -0.119563855876 0
9.74059652617e-05 -0.119597449019 0
0.00011654065242 -0.119628262102 0
0.000131179444832 -0.11965797857 0
0.000139179950931 -0.119685669669 0
0.000144093112636 -0.119715002433 0
0.000135466211365 -0.119748656556 0
0.000115029791993 -0.1197899452 0
7.56748984581e-05 -0.119861220189 0
0.0 -0.12 0
0.0 -0.12 0
0.0 -0.12 0
0.0 -0.12 0
0.0 -0.12 0
0.0 -0.12 0
0.0 -0.12 0
0.0 -0.12 0
0.0 -0.12 0
0.0 -0.12 0
0.0 -0.12 0
0.0 -0.12 0
0.0 -0.12 0
0.0 -0.12 0
0.0 -0.12 0
0.0 -0.12 0
0.0 -0.12 0
0.0 -0.12 0
0.0 -0.12 0
0.0 -0.12 0
0.0 -0.12 0
0.0 -0.12 0
0.0 -0.12 0
0.0 -0.12 0
0.0 -0.12 0
0.0 -0.12 0
0.0 -0.12 0
0.0 -0.12 0
0.0 -0.12 0
0.0 -0.12 0
-4.33685126236e-07 -0.119371971142 0
-1.90181251571e-07 -0.118702621843 0
-1.02099813444e-05 -0.118068224345 0
-1.44168246029e-07 -0.117534505921 0
-0.000152722553643 -0.118824292382 0
0.000146437686743 -0.11879327351 0
0.000103853504476 -0.118260614397 0
-0.000101078278297 -0.118181996973 0
0.000114725360565 -0.119256738912 0
4.21626582903e-05 -0.117769804432 0
-0.000117455748753 -0.119460517594 0
-2.9247841205e-05 -0.117617123528 0
-5.95445380235e-07 -0.117204431102 0
5.0107846641e-05 -0.119676990007 0
-4.16901996105e-05 -0.117278815186 0
-3.73794677858e-05 -0.119705660551 0
4.66038748533e-05 -0.117259606853 0
0.000150681249191 -0.1193087451 0
-0.00011495743063 -0.119088965324 0
-0.000156095931051 -0.119347126657 0
-5.50025521434e-05 -0.118710049832 0
4.47416659097e-06 -0.119702873176 0
4.43554471634e-05 -0.118786590226 0
-0.000113582440942 -0.118448947803 0
0.000104201121545 -0.118447336301 0
6.58574754177e-05 -0.117922433147 0
0.000115245336983 -0.118853358317 0
-6.99855188222e-05 -0.117878623585 0
3.73972597716e-05 -0.119074646849 0
0.000121434101188 -0.11958045256 0
-3.80649160949e-05 -0.11706184682 0
9.62449590186e-05 -0.119149695981 0
2.53229228877e-05 -0.117035803111 0
-0.000111924385012 -0.11881512611 0
3.56678790183e-05 -0.118052878569 0
-3.50479967491e-05 -0.118234006788 0
-8.49935935019e-05 -0.119083706582 0
-1.66739795328e-05 -0.118429761038 0
-1.90227907271e-05 -0.117435911184 0
4.83890352759e-05 -0.118483761104 0
-0.000100615695409 -0.117533443094 0
9.03465854023e-05 -0.117543472658 0
-5.70783977786e-05 -0.119736594241 0
-5.81735325672e-05 -0.119492697087 0
6.24365336923e-05 -0.119455010924 0
8.00026134452e-06 -0.117386183366 0
-0.0001327740428 -0.118526866905 0
-1.22793636358e-05 -0.119826919463 0
1.94374602222e-05 -0.11982601717 0
-4.7747244046e-05 -0.118951734244 0
-5.05851119184e-05 -0.119231625464 0
-0.000136637309839 -0.119594341994 0
-8.89454941724e-05 -0.118194425232 0
-3.75101848991e-05 -0.118618023703 0
0.000156310103696 -0.119069726519 0
-5.87494344463e-06 -0.117824660002 0
-0.000155364518568 -0.119060023673 0
-0.000111226702416 -0.117109398692 0
9.04096198379e-05 -0.117067762306 0
4.65935484378e-05 -0.117668052851 0
-0.000116219934281 -0.1179587027 0
7.34618147973e-05 -0.118197470576 0
5.7590977638e-05 -0.119750125523 0
-1.6130667304e-05 -0.119572980332 0
-0.000105750466006 -0.119322238957 0
-9.3764503206e-06 -0.116961415542 0
6.03468855339e-05 -0.118571067813 0
0.000144827539534 -0.119530109406 0
0.000133943622224 -0.118534938415 0
-0.000151063179524 -0.119131107907 0
1.94988667895e-05 -0.11954429053 0
0.000102831912002 -0.119488356668 0
1.49608002986e-06 -0.119859951888 0
-4.1862487115e-05 -0.117662702757 0
1.28120078976e-05 -0.119061467551 0
9.83039419987e-05 -0.119367172999 0
2.30901846107e-05 -0.118967748368 0
-8.30643165618e-05 -0.118610709517 0
0.000145431825895 -0.119381209853 0
5.20096490215e-05 -0.118893183539 0
-0.000144443235257 -0.119283686605 0
-3.08106483795e-05 -0.119842970075 0
0.000142308978016 -0.117252660955 0
-6.99714370663e-05 -0.117955757347 0
1.75125821318e-05 -0.117522575392 0
-1.72533822905e-05 -0.117220581499 0
2.32141242554e-05 -0.118278518453 0
6.43129629507e-05 -0.119276519908 0
2.75859085175e-05 -0.119850256166 0
0.000106188703843 -0.119060315296 0
2.14661724629e-05 -0.117183449261 0
-0.000143186333245 -0.117305151898 0
-9.99841271737e-05 -0.11930441539 0
8.75666732417e-05 -0.117973836931 0
-3.08198716954e-06 -0.117375653717 0
-0.0001233679002 -0.118806185448 0
0.000156178174821 -0.117847350717 0
-7.96000904879e-05 -0.118477374687 0
-2.08557771491e-05 -0.119849286577 0
-6.87409460997e-05 -0.118861699683 0
8.11630408098e-05 -0.118731278104 0
-7.15975704906e-05 -0.119742457182 0
8.49550736339e-05 -0.11853771404 0
0.00012902392792 -0.118696732662 0
-0.000133672100615 -0.119489112327 0
0.000103680173891 -0.118147117566 0
-0.000135151493059 -0.118701447445 0
-6.41693466513e-05 -0.116962707613 0
2.7010335183e-05 -0.119694661521 0
0.000109449288272 -0.118939704011 0
-4.07295521076e-05 -0.118239922135 0
-6.7358425925e-05 -0.11776169353 0
-4.15774621316e-05 -0.118238507285 0
0.000136878154851 -0.118340395252 0
-0.000123428708854 -0.118305427817 0
-4.57744567746e-05 -0.117974458706 0
-7.58931562124e-05 -0.119573061299 0
3.94489496624e-05 -0.116951064422 0
-0.000121805670664 -0.118497065048 0
2.13705779353e-05 -0.117707249565 0
-1.7498709018e-05 -0.119711696424 0
0.000147771022381 -0.119032567867 0
3.85306233982e-06 -0.119206074366 0
5.3185054155e-05 -0.1180547524 0
5.14249232771e-06 -0.117794946534 0
3.24694622316e-05 -0.117960608974 0
5.52570782554e-05 -0.118324888323 0
0.000142756753129 -0.119166374291 0
0.000117016776501 -0.118349963285 0
-3.36779143351e-05 -0.11925210642 0
6.81377532656e-05 -0.119760158668 0
-6.10538833026e-05 -0.118766315416 0
-0.000102859093918 -0.118090298647 0
-0.000149179857626 -0.119451882787 0
-0.00017410255181 -0.118244428816 0
-4.84320037273e-06 -0.117095499685 0
0.000130833442493 -0.119672408238 0
0.000123966888708 -0.119493356504 0
-0.000193657320071 -0.117723571798 0
8.15283425531e-06 -0.119889571354 0
0.000178949979139 -0.118150312501 0
3.26286529627e-05 -0.119220122659 0
-2.44245991341e-06 -0.117302993709 0
-4.16853834208e-05 -0.119381896144 0
-1.71386779669e-05 -0.119093863184 0
0.000124178196188 -0.118740732239 0
1.22303085672e-05 -0.11913001469 0
5.95335853864e-05 -0.118750685036 0
3.18926592612e-05 -0.11986069518 0
-0.000142732732526 -0.118622979503 0
-1.95710677545e-06 -0.117438857483 0
-7.09348421105e-05 -0.118410176261 0
7.04131172951e-05 -0.119634660205 0
-0.000140722422513 -0.118967608669 0
0.000150792830415 -0.118880382958 0
-2.17964076299e-05 -0.117777776978 0
-1.28605014531e-05 -0.117683157417 0
-0.000144268387102 -0.119602109186 0
-2.26652360787e-06 -0.118868098327 0
4.68791593076e-05 -0.119573137371 0
-0.000151635705602 -0.118900256688 0
8.98275222256e-05 -0.11937627885 0
0.000161191658227 -0.11710163453 0
-1.37861327524e-06 -0.117295559647 0
-9.64152234212e-05 -0.119603091352 0
-4.85267692181e-05 -0.117163074838 0
2.30633216334e-05 -0.117542513661 0
-5.3592200312e-05 -0.119687149165 0
-6.67183901897e-05 -0.119108049163 0
5.84051111447e-05 -0.118428914699 0
-4.5021573147e-05 -0.117606043711 0
-2.64354115584e-05 -0.118585048784 0
3.82868627729e-05 -0.119385910875 0
-3.03161508393e-05 -0.117456801353 0
1.08292579363e-05 -0.119793169543 0
-9.45218546099e-05 -0.117988128616 0
-3.93037268256e-05 -0.11959629415 0
9.49342706633e-05 -0.116981571694 0
-0.000119164996396 -0.117013377072 0
0.0001415634215 -0.119202086355 0
-4.09153534801e-06 -0.119901880821 0
-6.34235841896e-05 -0.118890007144 0
0.000176109811984 -0.118535594495 0
0.000201292261728 -0.117412191523 0
-3.05041303256e-05 -0.119872504067 0
8.14141062528e-05 -0.119155501929 0
0.000157485576709 -0.119235337759 0
3.92552769032e-05 -0.117424848997 0
-0.000227145636433 -0.117466436422 0
0.00013742751185 -0.118985409095 0
-9.683168933e-05 -0.118960028793 0
-0.000161699645539 -0.119196600837 0
-6.34684626774e-05 -0.119011773045 0
-0.000141278119726 -0.118745417588 0
6.88979833982e-05 -0.117807317963 0
3.30284094556e-05 -0.119762870707 0
0.00013316952545 -0.118572345402 0
9.4924007678e-05 -0.119606421191 0
-1.5293891326e-05 -0.11800999941 0
1.55452179434e-05 -0.119905661563 0
-3.96143765169e-05 -0.119831178206 0
-3.36098500078e-06 -0.119797611599 0
-0.000150826402939 -0.119472037721 0
8.50876011767e-06 -0.11730111186 0
-8.30109474715e-06 -0.118611284343 0
-9.95008416881e-06 -0.119911294944 0
-1.52961939568e-05 -0.117482115117 0
-0.000182850082235 -0.117147157637 0
-8.93474056306e-05 -0.119442656935 0
0.000152461802175 -0.119413020099 0
-0.000113205102398 -0.119725307612 0
-5.52678493826e-06 -0.117339026 0
5.07069014802e-05 -0.119747833417 0
-0.000120316294178 -0.119182925153 0
-0.000146246115904 -0.119268695413 0
6.65726585875e-05 -0.118056932739 0
-0.000117038683497 -0.118361610687 0
-0.000133567609199 -0.118978768261 0
3.65919022745e-05 -0.118101155911 0
9.83555414034e-05 -0.118703226199 0
0.000167462894092 -0.118678288303 0
0.00010291020661 -0.118905513376 0
-1.92463025605e-05 -0.119470220117 0
0.00011856204238 -0.118449390696 0
-3.81862930314e-05 -0.117794198453 0
6.16085670441e-06 -0.116910939452 0
-4.82434779923e-05 -0.118118542403 0
-3.2522260724e-05 -0.116913848821 0
0.00012349287763 -0.11938915592 0
-5.21399731047e-05 -0.119363547506 0
-9.00158768124e-05 -0.119444870816 0
-0.00010373937253 -0.118607218294 0
4.13644859191e-05 -0.119340529733 0
-0.000125823955352 -0.119537758054 0
4.43593243684e-05 -0.117092662174 0
-0.000132903408488 -0.118458283489 0
0.000222724532914 -0.117614889073 0
-2.04739576224e-05 -0.118402625748 0
-1.7543604005e-05 -0.119907627109 0
6.65007920614e-05 -0.119566310639 0
-0.000145635551054 -0.11916266514 0
-0.000158546387268 -0.118974688083 0
4.32142878531e-06 -0.119618113893 0
1.43593691674e-05 -0.117117339332 0
9.51567704594e-05 -0.117175998625 0
-2.41019223872e-05 -0.119773849206 0
2.59631860962e-05 -0.117509892021 0
4.53819163632e-05 -0.117650631696 0
9.99397998304e-05 -0.118574507557 0
-7.92507464252e-05 -0.118046691861 0
-6.89849694593e-05 -0.119328185101 0
1.30740467883e-05 -0.118536246207 0
2.95791650146e-05 -0.117839869792 0
-0.000241534223049 -0.118101694385 0
6.45002437481e-05 -0.118308429499 0
-0.000123028082528 -0.119231280697 0
1.41884769963e-05 -0.117607479647 0
6.81126109105e-06 -0.11744833053 0
4.67601705562e-06 -0.118998579705 0
9.83086699537e-06 -0.119921928999 0
9.44192050984e-05 -0.118936784136 0
6.88574495747e-05 -0.119016782127 0
3.2766867524e-05 -0.118242251727 0
-1.91156640762e-05 -0.117136909695 0
6.04892376122e-05 -0.118928155145 0
-2.28952348475e-05 -0.119298007454 0
-5.68264001317e-05 -0.119598093219 0
-9.32022079316e-05 -0.11722051702 0
4.72947819149e-06 -0.117618791301 0
0.000118235026553 -0.118293757769 0
-8.30844848711e-05 -0.118302146793 0
-0.000156880185638 -0.119316628853 0
3.78143502933e-05 -0.119847153568 0
-0.000173128429469 -0.117058423715 0
-4.50123059555e-05 -0.117800100368 0
0.000140572594367 -0.119542096109 0
-0.000193294155949 -0.118393765782 0
3.75577736743e-05 -0.118495127986 0
4.22901804272e-05 -0.119186642249 0
0.000144641691783 -0.117016596876 0
-0.000141185495832 -0.118696971637 0
-9.62269700608e-06 -0.117949684019 0
4.91561492835e-05 -0.117786665748 0
-1.59985341698e-05 -0.117031046585 0
-7.30230050171e-05 -0.117068403228 0
5.53731443299e-06 -0.119470617697 0
-0.000113314047949 -0.118325938015 0
-3.34349373879e-05 -0.119023359028 0
-0.000108487945766 -0.11857443834 0
-3.55753441283e-05 -0.119178699587 0
-3.19756209107e-05 -0.119796018841 0
3.1399090059e-05 -0.118652745026 0
-5.32911359373e-05 -0.118507636876 0
1.55295743828e-05 -0.118823043101 0
-3.10067037207e-05 -0.118415430879 0
0.000132399593656 -0.11939508231 0
6.78164252099e-07 -0.118903205855 0
6.80152344597e-05 -0.117918877728 0
0.000140944939658 -0.119629314952 0
-0.000136966971044 -0.11939009978 0
2.72161246763e-06 -0.119931520774 0
-0.000179627626903 -0.118646320654 0
0.000116680091748 -0.11859496375 0
0.000234648215692 -0.117278147269 0
-2.56868036245e-05 -0.117947612626 0
-3.25179167189e-05 -0.117551745659 0
3.88456777323e-05 -0.119488677954 0
-9.68850222601e-05 -0.119185584233 0
-3.62602502807e-06 -0.118180868712 0
2.69493959221e-05 -0.119297198941 0
7.16396163196e-05 -0.119069679797 0
8.98548574205e-05 -0.119467776096 0
0.000156309475513 -0.119178911215 0
8.61706047398e-05 -0.118133260537 0
7.43823601971e-05 -0.119044599294 0
9.15675065565e-05 -0.118017089258 0
0.000125890043462 -0.119487471474 0
-2.33946702007e-06 -0.11729001406 0
-2.04239728179e-05 -0.117587795057 0
5.37416138921e-05 -0.1170081034 0
1.94319355924e-05 -0.119914768829 0
8.08787255826e-05 -0.119483289179 0
-0.000106724428174 -0.118956916066 0
-0.000244377787338 -0.117284963769 0
-0.000139412901109 -0.119675365108 0
-0.000107623382331 -0.119648790471 0
-9.0371844792e-06 -0.119660547493 0
0.00010739923588 -0.119257691145 0
-4.46619394742e-05 -0.119777436286 0
-8.29795718127e-05 -0.118308540203 0
4.01981623299e-05 -0.119768518431 0
1.91393524259e-05 -0.119635820692 0
0.000137671739666 -0.119285080238 0
-1.51607521487e-05 -0.118323047435 0
2.45732983848e-05 -0.118795371497 0
-0.000112487030439 -0.118699441216 0
-3.77875830821e-05 -0.119510815006 0
1.80285157099e-05 -0.118386502499 0
-1.04266398408e-05 -0.11993059951 0
8.7866315623e-05 -0.118395387924 0
0.000246382494118 -0.118290986176 0
2.92424579939e-05 -0.118640900374 0
-0.00012424988158 -0.119348152475 0
0.000132001935558 -0.119575310282 0
7.19332297857e-05 -0.117850505102 0
-8.92382267707e-05 -0.117737176769 0
-7.71915653967e-05 -0.117361002299 0
-1.30985618021e-05 -0.11739775149 0
0.000244600840095 -0.118022657938 0
7.0571557613e-05 -0.117726181265 0
-6.36930593653e-05 -0.117766056628 0
2.46017489083e-08 -0.119931784717 0
8.6940836874e-05 -0.119269929693 0
0.000103605230054 -0.118131187946 0
7.59217706506e-05 -0.116927545311 0
0.000125931731039 -0.11904673903 0
0.000153613413286 -0.118820042278 0
9.72833266585e-05 -0.118329329842 0
2.65589316864e-05 -0.119895709273 0
-5.27608259206e-06 -0.119932762974 0
0.000140319294266 -0.118919344942 0
-0.000246770926502 -0.11792297425 0
0.000141934647968 -0.118658749493 0
-0.000103868594563 -0.116947324691 0
5.12031825553e-05 -0.117163831507 0
1.60368047493e-05 -0.11760654212 0
0.00013584000233 -0.118828126906 0
-9.30624294111e-05 -0.118762294125 0
0.000101157656719 -0.119759464538 0
0.000104676676363 -0.117393530806 0
-0.000125018375414 -0.118958551539 0
6.86236752506e-05 -0.117916814358 0
2.41405972513e-05 -0.119235370339 0
-7.95543925967e-06 -0.117207720716 0
1.59784074443e-05 -0.116984494416 0
-0.00013906164136 -0.119404842146 0
-8.10332697164e-05 -0.118107665201 0
2.21464643967e-05 -0.11789759269 0
6.95669686041e-05 -0.118624342936 0
-6.86347554406e-05 -0.118875857837 0
-0.000132988598272 -0.119575944056 0
0.000216944641197 -0.117157968964 0
-1.80367873746e-05 -0.119924350252 0
1.58202188662e-05 -0.119725035495 0
4.28766639434e-06 -0.1172237572 0
-2.3968863359e-05 -0.119638054675 0
-2.58243706272e-05 -0.118785545114 0
-1.01218201706e-05 -0.117385327471 0
-0.000225105847245 -0.118543060455 0
-7.74222108824e-05 -0.118116296784 0
1.4331748853e-05 -0.119927861241 0
-0.000115816069129 -0.118345736921 0
-0.000115892360616 -0.11821715355 0
0.000143639213814 -0.119465239737 0
-0.00010916184814 -0.118208727702 0
7.86013022705e-05 -0.117291197819 0
-6.53142669645e-05 -0.119726810305 0
0.000144303079136 -0.118718259122 0
0.00023129506444 -0.118421399896 0
-8.42525692982e-05 -0.119273563012 0
0.00010203720961 -0.118224173436 0
-3.38293504442e-05 -0.116986959111 0
5.45539344442e-05 -0.119423261426 0
0.000103896917279 -0.119690678878 0
1.2266731385e-05 -0.119136838342 0
9.43973626726e-05 -0.118814578811 0
-2.39254712434e-06 -0.11730684146 0
-0.000156742751992 -0.119186186488 0
-0.000148774681861 -0.118856899417 0
3.88235373959e-05 -0.119674684226 0
-2.30286777891e-05 -0.118111214208 0
-0.000136214163627 -0.118807509118 0
-4.15616598001e-05 -0.118745181538 0
-3.06598192758e-05 -0.1175173873 0
8.74028990302e-05 -0.11818704054 0
-0.000107758768764 -0.119516546012 0
0.000129240341883 -0.118491334066 0
0.000272468057659 -0.117856169545 0
-0.000149366394528 -0.118741845246 0
4.75498357147e-05 -0.11822432316 0
-7.155682204e-05 -0.119809842373 0
3.071020774e-05 -0.118206299079 0
0.00012964653902 -0.119305397037 0
7.00108388853e-05 -0.119381404944 0
0.000122033976615 -0.119159719122 0
-0.00016106684434 -0.119107371222 0
-5.32557677654e-05 -0.117693071779 0
-1.69185296399e-05 -0.119841526283 0
3.95442058468e-05 -0.116907617883 0
-2.99404174139e-05 -0.117886784402 0
-9.79591669017e-05 -0.119541930396 0
3.96083641781e-06 -0.119783562056 0
-6.81585734336e-05 -0.116925310751 0
2.47591674912e-05 -0.119843110703 0
-2.05289965296e-05 -0.119194986929 0
0.000151641253442 -0.118907021807 0
-8.8578773657e-05 -0.118519133528 0
-5.76109437558e-05 -0.118664969123 0
-8.03449146893e-05 -0.119017311056 0
3.22061118246e-05 -0.118975873048 0