# vtk DataFile Version 2.0
Generated with Solid Solver
ASCII
DATASET UNSTRUCTURED_GRID
POINTS 1757 float 
1.0 0.0 0.0
0.0 -1.0 0.0
-1.0 0.0 0.0
0.0 1.0 0.0
-0.995380413423 -0.0960095441785 0.0
-0.98261780075 -0.185640129414 0.0
-0.96322958769 -0.268679663165 0.0
-0.938560776953 -0.345113992712 0.0
-0.90978672778 -0.415076029126 0.0
-0.877921711568 -0.478804206705 0.0
-0.843830985157 -0.536609046223 0.0
-0.808244689242 -0.588846773203 0.0
-0.771772366024 -0.635898903162 0.0
-0.73491739518 -0.678156635492 0.0
-0.698090641905 -0.716009396366 0.0
-0.661623210588 -0.749836466979 0.0
-0.6257779638 -0.780001243603 0.0
-0.590759898542 -0.806847409536 0.0
-0.55672527119 -0.83069667895 0.0
-0.523789567821 -0.851847690988 0.0
-0.4920344724 -0.870575716391 0.0
-0.461513788672 -0.887133035607 0.0
-0.432258543883 -0.901749716518 0.0
-0.404281323176 -0.914634687584 0.0
-0.377579883859 -0.925977014458 0.0
-0.352140279087 -0.935947233472 0.0
-0.327939363362 -0.944698774191 0.0
-0.304946964352 -0.952369334309 0.0
-0.283127619241 -0.959082244243 0.0
-0.262442049932 -0.964947755284 0.0
-0.24284833385 -0.970064269389 0.0
-0.224302876543 -0.974519481373 0.0
-0.206761193898 -0.978391439403 0.0
-0.190178533755 -0.981749522688 0.0
-0.174510373217 -0.984655335455 0.0
-0.159712796062 -0.987163523827 0.0
-0.145742818731 -0.989322511009 0.0
-0.132558585798 -0.99117517187 0.0
-0.120119553476 -0.992759433535 0.0
-0.108386608834 -0.994108818503 0.0
-0.0973221399841 -0.995252933213 0.0
-0.0868900892702 -0.996217904068 0.0
-0.0770559742282 -0.997026768365 0.0
-0.0677868864448 -0.997699823607 0.0
-0.0590514752917 -0.998254939014 0.0
-0.0508199228057 -0.998707832875 0.0
-0.0430639085463 -0.999072319595 0.0
-0.0357565614578 -0.999360529695 0.0
-0.0288724199598 -0.999583104782 0.0
-0.0223873675603 -0.99974937148 0.0
-0.0162785878776 -0.99986749501 0.0
-0.0105245046693 -0.999944615867 0.0
-0.00510472847989 -0.999986970789 0.0
0.00510472847988 -0.999986970789 0.0
0.0105245046693 -0.999944615867 0.0
0.0162785878776 -0.99986749501 0.0
0.0223873675602 -0.99974937148 0.0
0.0288724199598 -0.999583104782 0.0
0.0357565614578 -0.999360529695 0.0
0.0430639085462 -0.999072319595 0.0
0.0508199228056 -0.998707832875 0.0
0.0590514752916 -0.998254939014 0.0
0.0677868864446 -0.997699823607 0.0
0.077055974228 -0.997026768365 0.0
0.08689008927 -0.996217904069 0.0
0.0973221399839 -0.995252933213 0.0
0.108386608834 -0.994108818503 0.0
0.120119553476 -0.992759433535 0.0
0.132558585798 -0.99117517187 0.0
0.145742818731 -0.989322511009 0.0
0.159712796061 -0.987163523827 0.0
0.174510373217 -0.984655335455 0.0
0.190178533754 -0.981749522689 0.0
0.206761193898 -0.978391439403 0.0
0.224302876542 -0.974519481373 0.0
0.24284833385 -0.97006426939 0.0
0.262442049931 -0.964947755284 0.0
0.28312761924 -0.959082244244 0.0
0.304946964351 -0.95236933431 0.0
0.32793936336 -0.944698774191 0.0
0.352140279085 -0.935947233473 0.0
0.377579883857 -0.925977014459 0.0
0.404281323174 -0.914634687584 0.0
0.432258543881 -0.901749716519 0.0
0.46151378867 -0.887133035608 0.0
0.492034472398 -0.870575716392 0.0
0.523789567819 -0.851847690989 0.0
0.556725271188 -0.830696678951 0.0
0.590759898539 -0.806847409538 0.0
0.625777963797 -0.780001243606 0.0
0.661623210585 -0.749836466982 0.0
0.698090641902 -0.716009396369 0.0
0.734917395177 -0.678156635496 0.0
0.771772366021 -0.635898903165 0.0
0.80824468924 -0.588846773206 0.0
0.843830985155 -0.536609046227 0.0
0.877921711566 -0.478804206707 0.0
0.909786727779 -0.415076029129 0.0
0.938560776952 -0.345113992715 0.0
0.96322958769 -0.268679663167 0.0
0.98261780075 -0.185640129415 0.0
0.995380413423 -0.0960095441792 0.0
0.995184726672 0.0980171403292 0.0
0.980785280403 0.195090322016 0.0
0.956940335732 0.290284677254 0.0
0.923879532512 0.382683432364 0.0
0.881921264349 0.471396736825 0.0
0.831469612303 0.555570233018 0.0
0.773010453364 0.634393284162 0.0
0.707106781188 0.707106781185 0.0
0.634393284165 0.773010453362 0.0
0.555570233021 0.831469612302 0.0
0.471396736827 0.881921264348 0.0
0.382683432366 0.923879532511 0.0
0.290284677255 0.956940335732 0.0
0.195090322016 0.980785280403 0.0
0.0980171403296 0.995184726672 0.0
-0.0980171403292 0.995184726672 0.0
-0.195090322016 0.980785280403 0.0
-0.290284677254 0.956940335732 0.0
-0.382683432364 0.923879532512 0.0
-0.471396736825 0.881921264349 0.0
-0.555570233018 0.831469612303 0.0
-0.634393284162 0.773010453364 0.0
-0.707106781185 0.707106781188 0.0
-0.773010453362 0.634393284165 0.0
-0.831469612302 0.555570233021 0.0
-0.881921264348 0.471396736827 0.0
-0.923879532511 0.382683432366 0.0
-0.956940335732 0.290284677255 0.0
-0.980785280403 0.195090322016 0.0
-0.995184726672 0.0980171403296 0.0
-4.96996675457e-15 -1.93548667772e-12 0.0
0.00127619043384 -0.500000000001 0.0
-0.00722089405625 -0.748268261399 0.0
0.00228876066458 -0.875556181739 0.0
-0.281695474279 -0.627991907605 0.0
0.276565504347 -0.648709845297 0.0
0.165521166582 -0.808905078842 0.0
-0.152585357215 -0.822741196601 0.0
0.315604058399 -0.24609675106 0.0
0.102417520922 -0.891264985708 0.0
-0.475635334484 -0.159294667465 0.0
-0.0835204948431 -0.904755269877 0.0
-0.00325062230283 -0.936932840139 0.0
0.443692867126 0.230749263633 0.0
0.0519377913903 -0.943993046933 0.0
-0.376036192266 0.329953197425 0.0
-0.0521516255689 -0.947879580655 0.0
0.515606575531 -0.501630943311 0.0
-0.240308280436 -0.343851039704 0.0
-0.533518994474 -0.465307197087 0.0
-0.287804041658 -0.805642358412 0.0
0.0445238380782 0.430295701266 0.0
0.311896404579 -0.800379386155 0.0
-0.13107597474 -0.667419094267 0.0
0.123108305654 -0.661752158477 0.0
0.0628248294012 -0.806365098603 0.0
0.187292166309 -0.484108441138 0.0
-0.0641832406134 -0.819165573216 0.0
0.0798579288498 -0.275607470425 0.0
0.638459931996 -0.202013346611 0.0
0.0186626287027 -0.965141212843 0.0
0.45526094991 -0.681833875225 0.0
-0.0129772315159 -0.968247403008 0.0
-0.171540104927 -0.497908016167 0.0
-0.155127552345 -0.915207147269 0.0
0.183001231559 -0.901567275323 0.0
-0.426144747324 -0.715098931219 0.0
-0.0162892183335 -0.624792928552 0.0
-0.035730323476 -0.903037334438 0.0
-0.232827639067 -0.88874456779 0.0
0.0975199139805 -0.95072651026 0.0
-0.0981552596427 -0.949236823345 0.0
-0.648667569896 0.129148118328 0.0
-0.279554044891 0.0627654755135 0.0
0.273151102826 0.0171449977907 0.0
0.0298555050875 -0.90994366709 0.0
-0.212344149878 -0.737463281314 0.0
-0.229946357699 0.611891537337 0.0
0.354045803606 0.561510173556 0.0
-0.0818860901218 -0.36457251704 0.0
-0.134091639038 -0.159199321554 0.0
-0.695625031714 -0.277606106328 0.0
-0.0867851478723 -0.736672431226 0.0
0.265337120787 -0.869981074022 0.0
0.348760961551 -0.493554128188 0.0
-0.00320990135474 -0.812594716229 0.0
-0.329186847098 -0.471221989663 0.0
0.0460713866435 -0.972062035364 0.0
-0.0375937409611 -0.973405027164 0.0
0.0535682648895 -0.864336593337 0.0
0.145483624803 -0.941368692522 0.0
0.0736239261235 -0.727615112901 0.0
0.697430582005 0.0837555012036 0.0
-0.100737206717 0.233330119735 0.0
-0.556100193995 -0.633724671947 0.0
0.00232821863967 -0.980465167455 0.0
0.0749759373331 -0.577439211916 0.0
0.680855415879 -0.415051663416 0.0
0.206146806604 -0.718315341021 0.0
-0.421930988685 -0.574802042479 0.0
0.11279966401 0.192512083541 0.0
0.460339190007 -0.0980710125314 0.0
0.0312756254498 0.706087755727 0.0
-0.040272424356 -0.858092004677 0.0
0.420061865811 -0.786049287866 0.0
0.586966069727 -0.62991917776 0.0
-0.380981551573 -0.827227698018 0.0
-0.103259760795 -0.570508864702 0.0
0.492756350161 -0.313708161781 0.0
0.0874955387678 -0.404713379013 0.0
-0.407564399695 -0.320423699857 0.0
-0.628919985203 0.391318787041 0.0
-0.0699640992687 -0.968896636178 0.0
-0.125152864878 -0.868227961676 0.0
0.0682876879855 -0.909252863859 0.0
0.0266399275605 -0.939207803 0.0
0.024631671702 -0.683106747508 0.0
0.189737416738 -0.13866360915 0.0
0.585215188034 0.450819219258 0.0
0.21785306249 -0.351336809722 0.0
-0.0271807897333 -0.946087422773 0.0
0.0756038792145 -0.966069497566 0.0
-0.298382974098 -0.178452310631 0.0
0.110518716749 -0.836650464469 0.0
-0.00264273972314 -0.90600804268 0.0
-0.305474440976 -0.716515505544 0.0
-0.134098046274 -0.954681405258 0.0
-0.223207038653 -0.817004808206 0.0
-0.447544946165 0.557155518089 0.0
0.34051079299 -0.862151144016 0.0
-0.298042796814 -0.881681319918 0.0
-0.769097087 -0.0583313654367 0.0
0.235752952896 -0.800651841032 0.0
0.188159568073 -0.587366695661 0.0
-0.672181311867 -0.518770972668 0.0
0.114322329275 -0.778392343179 0.0
-0.194516208698 -0.591307758062 0.0
0.0187557175556 -0.983773357993 0.0
0.261285852013 0.368198218166 0.0
0.35743297867 -0.706299332218 0.0
-0.0373500264002 -0.698736700423 0.0
-0.0819440313114 -0.865476917287 0.0
-0.179035137098 -0.867736107652 0.0
-0.203508688916 -0.928442862871 0.0
-0.149960306607 -0.756327532646 0.0
-0.0384840194478 -0.780550639081 0.0
-0.451807703057 0.0482365390086 0.0
-0.0126098573182 -0.983928124157 0.0
0.235939510081 -0.91326563502 0.0
0.0215596456358 -0.841867333374 0.0
-0.184109888945 0.422443108965 0.0
0.374550658138 -0.601661169977 0.0
0.0128828283903 -0.160035124024 0.0
0.145394081967 -0.872900625084 0.0
-0.118308145889 -0.916653533869 0.0
0.0299899444326 -0.781967816991 0.0
0.193085013132 -0.848690188911 0.0
0.342764161569 -0.375186491603 0.0
0.139108539028 -0.721982686315 0.0
-0.520450424114 -0.742720287668 0.0
0.791510244481 -0.0614494340947 0.0
-0.0865753027393 -0.480543320587 0.0
-0.108780745819 -0.792998693675 0.0
-0.566281122187 -0.32470713474 0.0
0.186476176315 -0.941887746383 0.0
0.00180194513842 -0.95609312381 0.0
0.796826697394 -0.279168840706 0.0
0.679362570623 -0.539584903183 0.0
0.122771341382 -0.96395482973 0.0
0.247356495332 0.728704965441 0.0
-0.171736364808 -0.947995561586 0.0
0.500625473665 -0.745135744913 0.0
-0.0217695695247 -0.922438649325 0.0
-0.15066796653 -0.0133658365529 0.0
-0.0353924586132 -0.253896747296 0.0
0.281295316404 -0.720785267167 0.0
-0.454589975051 -0.800300057754 0.0
0.0865964804951 -0.48952242347 0.0
0.737591674888 0.295325894026 0.0
[...]
POINT_DATA 1757
VECTORS Displacement float
0.0 -0.03 0
-1.53676108241e-16 -0.03 0
0.0 -0.03 0
0.0 -0.03 0
-9.27215538263e-17 -0.03 0
-1.56261880742e-16 -0.03 0
-1.65093219583e-16 -0.03 0
-1.50679760969e-16 -0.03 0
-1.15447488863e-16 -0.03 0
-6.88922162178e-17 -0.03 0
-2.0825057383e-17 -0.03 0
5.07494822616e-17 -0.03 0
1.31046698836e-16 -0.03 0
2.05688812493e-16 -0.03 0
2.59736921075e-16 -0.03 0
3.17150484595e-16 -0.03 0
3.86011661371e-16 -0.03 0
4.65821189711e-16 -0.03 0
5.31741726609e-16 -0.03 0
5.90943449124e-16 -0.03 0
6.35518262789e-16 -0.03 0
6.65291979552e-16 -0.03 0
6.62971069233e-16 -0.03 0
6.60428840844e-16 -0.03 0
6.73932041193e-16 -0.03 0
6.85002738787e-16 -0.03 0
6.75802620338e-16 -0.03 0
6.58026578983e-16 -0.03 0
6.22894955153e-16 -0.03 0
5.81883245388e-16 -0.03 0
5.4207132558e-16 -0.03 0
5.13559906555e-16 -0.03 0
4.84210383497e-16 -0.03 0
4.4900654668e-16 -0.03 0
4.07033918717e-16 -0.03 0
3.49033113172e-16 -0.03 0
3.15649661701e-16 -0.03 0
2.75232563032e-16 -0.03 0
2.15389591562e-16 -0.03 0
1.65911608271e-16 -0.03 0
1.0303037886e-16 -0.03 0
3.65416691374e-17 -0.03 0
-7.67693638241e-18 -0.03 0
-6.16972892813e-17 -0.03 0
-1.20571630491e-16 -0.03 0
-1.45177717393e-16 -0.03 0
-1.61265746923e-16 -0.03 0
-1.65889824159e-16 -0.03 0
-1.65005857103e-16 -0.03 0
-1.80459436714e-16 -0.03 0
-1.73211143063e-16 -0.03 0
-1.6638514647e-16 -0.03 0
-1.51755439193e-16 -0.03 0
-1.59558864688e-16 -0.03 0
-1.36767425699e-16 -0.03 0
-1.23772711974e-16 -0.03 0
-1.27572811506e-16 -0.03 0
-1.56796631081e-16 -0.03 0
-1.47087109184e-16 -0.03 0
-1.56012253541e-16 -0.03 0
-1.46857460012e-16 -0.03 0
-1.40169911919e-16 -0.03 0
-1.60113943952e-16 -0.03 0
-1.91674296507e-16 -0.03 0
-2.3128918243e-16 -0.03 0
-2.6090220914e-16 -0.03 0
-2.82470954082e-16 -0.03 0
-3.03125271422e-16 -0.03 0
-3.30863596728e-16 -0.03 0
-3.86777857181e-16 -0.03 0
-4.25241351941e-16 -0.03 0
-4.65269857815e-16 -0.03 0
-4.78271061315e-16 -0.03 0
-5.01461783781e-16 -0.03 0
-5.19673252736e-16 -0.03 0
-5.33974420562e-16 -0.03 0
-5.41101111823e-16 -0.03 0
-5.39057556479e-16 -0.03 0
-5.28231999633e-16 -0.03 0
-5.07410162991e-16 -0.03 0
-4.84919088718e-16 -0.03 0
-4.44624414135e-16 -0.03 0
-4.25481371471e-16 -0.03 0
-4.21370596428e-16 -0.03 0
-4.44381891305e-16 -0.03 0
-4.7934715432e-16 -0.03 0
-4.37752877429e-16 -0.03 0
-3.73209538241e-16 -0.03 0
-2.95324855369e-16 -0.03 0
-2.30056392219e-16 -0.03 0
-1.71561133591e-16 -0.03 0
-1.09494161575e-16 -0.03 0
-7.61573785e-17 -0.03 0
-2.78321799117e-17 -0.03 0
2.23968173035e-17 -0.03 0
6.35721947452e-17 -0.03 0
9.98874772319e-17 -0.03 0
1.19738532029e-16 -0.03 0
1.50080547631e-16 -0.03 0
1.33762706238e-16 -0.03 0
1.05442742413e-16 -0.03 0
6.68204662589e-17 -0.03 0
0.0 -0.03 0
0.0 -0.03 0
0.0 -0.03 0
0.0 -0.03 0
0.0 -0.03 0
0.0 -0.03 0
0.0 -0.03 0
0.0 -0.03 0
0.0 -0.03 0
0.0 -0.03 0
0.0 -0.03 0
0.0 -0.03 0
0.0 -0.03 0
0.0 -0.03 0
0.0 -0.03 0
0.0 -0.03 0
0.0 -0.03 0
0.0 -0.03 0
0.0 -0.03 0
0.0 -0.03 0
0.0 -0.03 0
0.0 -0.03 0
0.0 -0.03 0
0.0 -0.03 0
0.0 -0.03 0
0.0 -0.03 0
0.0 -0.03 0
0.0 -0.03 0
0.0 -0.03 0
0.0 -0.03 0
-7.53127222295e-18 -0.03 0
7.11490729442e-17 -0.03 0
1.01575888165e-16 -0.03 0
4.68996842679e-18 -0.03 0
1.35540920235e-17 -0.03 0
3.2498018156e-17 -0.03 0
-1.06707781394e-16 -0.03 0
1.88504249983e-16 -0.03 0
1.30721822797e-16 -0.03 0
-1.62000753978e-16 -0.03 0
-1.30304231216e-16 -0.03 0
1.62650077973e-16 -0.03 0
-2.44450909331e-17 -0.03 0
6.7176842185e-17 -0.03 0
-1.65420186212e-16 -0.03 0
-9.40591421087e-17 -0.03 0
5.51931496786e-17 -0.03 0
1.06680466999e-16 -0.03 0
-6.6889436405e-17 -0.03 0
-1.29226010241e-16 -0.03 0
2.51817913711e-16 -0.03 0
1.03090787585e-17 -0.03 0
-1.79297044669e-16 -0.03 0
5.60998157689e-17 -0.03 0
5.42809599243e-17 -0.03 0
-1.69458356474e-17 -0.03 0
1.27805768741e-16 -0.03 0
1.20162607852e-16 -0.03 0
7.33503337189e-17 -0.03 0
1.02339620177e-16 -0.03 0
-1.03986551639e-16 -0.03 0
-2.31882268875e-17 -0.03 0
-7.2743011049e-17 -0.03 0
-4.50066865977e-18 -0.03 0
2.53141356011e-16 -0.03 0
-2.62700040236e-16 -0.03 0
1.36978897764e-16 -0.03 0
5.17189326996e-17 -0.03 0
8.66611428831e-17 -0.03 0
3.71544535489e-16 -0.03 0
-2.3339485043e-16 -0.03 0
1.61963567909e-16 -0.03 0
-9.45000739786e-17 -0.03 0
-7.32796121955e-17 -0.03 0
9.07112526044e-17 -0.03 0
-6.4020889346e-17 -0.03 0
1.15794134912e-16 -0.03 0
-3.63159623184e-17 -0.03 0
5.33660420746e-17 -0.03 0
2.66389765771e-17 -0.03 0
-3.80883372273e-17 -0.03 0
-1.62448286796e-16 -0.03 0
1.07634461931e-16 -0.03 0
-2.51862272505e-16 -0.03 0
1.31118656165e-16 -0.03 0
6.08363877251e-17 -0.03 0
-7.61989229485e-17 -0.03 0
-1.42862057273e-16 -0.03 0
-4.80623602232e-17 -0.03 0
-6.4693337177e-17 -0.03 0
-2.75924153703e-16 -0.03 0
4.26726644921e-17 -0.03 0
6.50367292838e-17 -0.03 0
-4.24591325374e-17 -0.03 0
6.33735981729e-17 -0.03 0
-1.08179014667e-16 -0.03 0
8.22931822683e-17 -0.03 0
1.1873561303e-16 -0.03 0
-2.09815553684e-17 -0.03 0
-2.33079148824e-17 -0.03 0
1.89370954101e-17 -0.03 0
1.11907077748e-16 -0.03 0
2.02516856275e-17 -0.03 0
1.01243709533e-16 -0.03 0
-2.31587382623e-16 -0.03 0
1.17179187297e-17 -0.03 0
3.59498283895e-16 -0.03 0
2.43152284022e-17 -0.03 0
1.40262700704e-16 -0.03 0
1.00805819154e-16 -0.03 0
-1.47144868798e-16 -0.03 0
-6.27937407596e-17 -0.03 0
5.84211936234e-17 -0.03 0
1.96895242004e-16 -0.03 0
-1.48827704343e-16 -0.03 0
-1.0316449319e-16 -0.03 0
6.91899452791e-17 -0.03 0
9.33303067892e-17 -0.03 0
6.42347346236e-17 -0.03 0
1.25351600736e-16 -0.03 0
9.24756695834e-18 -0.03 0
-2.18074687678e-16 -0.03 0
-1.07147075774e-16 -0.03 0
-1.0155686041e-16 -0.03 0
-1.10845784581e-17 -0.03 0
1.03209170246e-16 -0.03 0
2.36410985113e-16 -0.03 0
2.51960301038e-16 -0.03 0
-5.49169965352e-17 -0.03 0
-3.02225099629e-16 -0.03 0
4.11676544721e-16 -0.03 0
-9.32924213621e-17 -0.03 0
-1.21162982221e-16 -0.03 0
9.9650851738e-17 -0.03 0
-5.69915799403e-17 -0.03 0
-2.99369338368e-17 -0.03 0
6.16403999662e-19 -0.03 0
-1.31911927306e-16 -0.03 0
5.03043645519e-17 -0.03 0
-6.40385660033e-17 -0.03 0
9.11510175769e-17 -0.03 0
1.52974475471e-16 -0.03 0
2.51536048408e-16 -0.03 0
3.72313281007e-16 -0.03 0
1.39896537521e-16 -0.03 0
1.04286990998e-16 -0.03 0
-1.05764001918e-16 -0.03 0
-1.14322432043e-16 -0.03 0
-3.55232849329e-16 -0.03 0
-6.23570051253e-18 -0.03 0
-5.64192640829e-17 -0.03 0
7.791189019e-17 -0.03 0
3.86019660433e-17 -0.03 0
-1.69137665583e-16 -0.03 0
1.97892250617e-16 -0.03 0
5.20708822299e-17 -0.03 0
-1.64764837155e-16 -0.03 0
1.40565984182e-16 -0.03 0
2.80243738878e-18 -0.03 0
2.41008743232e-16 -0.03 0
3.65021304974e-17 -0.03 0
4.08547815828e-17 -0.03 0
1.50204917467e-16 -0.03 0
-1.67860097207e-16 -0.03 0
-3.51618776891e-16 -0.03 0
-5.28444436902e-17 -0.03 0
1.10423093714e-16 -0.03 0
6.7508644619e-17 -0.03 0
-2.96126460435e-16 -0.03 0
2.60844014445e-17 -0.03 0
3.35897174613e-16 -0.03 0
-1.26320364934e-16 -0.03 0
3.06081732939e-17 -0.03 0
-5.53463578698e-17 -0.03 0
2.40867930203e-17 -0.03 0
-5.95352692835e-17 -0.03 0
3.44916692046e-16 -0.03 0
1.05387322447e-16 -0.03 0
5.26694895315e-17 -0.03 0
3.3748328527e-17 -0.03 0
1.19886417664e-16 -0.03 0
6.32458617747e-17 -0.03 0
6.75968481858e-17 -0.03 0
4.22614812074e-17 -0.03 0
1.06853736568e-16 -0.03 0
-2.14337515319e-16 -0.03 0
6.18493802573e-17 -0.03 0
-1.35859850897e-16 -0.03 0
6.9754381848e-17 -0.03 0
4.92027206853e-17 -0.03 0
-4.12688858475e-17 -0.03 0
1.2234387137e-16 -0.03 0
-2.70718883104e-17 -0.03 0
-5.0678951522e-17 -0.03 0
-1.23311123816e-16 -0.03 0
-1.36669395021e-16 -0.03 0
-4.88198650439e-17 -0.03 0
-8.54163962333e-17 -0.03 0
-1.99582591459e-17 -0.03 0
6.79098810292e-17 -0.03 0
1.36543115519e-16 -0.03 0
4.97640842988e-17 -0.03 0
6.06660988993e-17 -0.03 0
-1.78528180779e-16 -0.03 0
2.97122743545e-17 -0.03 0
1.67372974359e-16 -0.03 0
-8.33869517752e-17 -0.03 0
-1.10417585831e-16 -0.03 0
-1.23136201512e-16 -0.03 0
6.36463270124e-17 -0.03 0
3.30878589325e-18 -0.03 0
2.09856980265e-16 -0.03 0
4.45136527084e-16 -0.03 0
1.2615359686e-16 -0.03 0
-6.12164058543e-17 -0.03 0
1.16395390745e-16 -0.03 0
1.49921058279e-16 -0.03 0
1.10539831978e-16 -0.03 0
-2.48054798985e-16 -0.03 0
1.36097089522e-16 -0.03 0
-2.79035432796e-17 -0.03 0
-1.07318533281e-16 -0.03 0
-3.31950885161e-16 -0.03 0
-3.6861440417e-16 -0.03 0
-1.11013108592e-16 -0.03 0
6.49550759941e-17 -0.03 0
4.70845603452e-17 -0.03 0
7.86810332939e-17 -0.03 0
-2.20454033125e-16 -0.03 0
4.37154752827e-17 -0.03 0
-5.71116358226e-17 -0.03 0
4.15854080346e-19 -0.03 0
-1.44209683468e-16 -0.03 0
6.06046442242e-17 -0.03 0
3.17249542547e-16 -0.03 0
-2.34430064159e-17 -0.03 0
3.59591279216e-17 -0.03 0
-1.80912233922e-16 -0.03 0
-9.84719486181e-17 -0.03 0
1.39301100001e-16 -0.03 0
-1.38874203855e-16 -0.03 0
-1.14719365435e-16 -0.03 0
7.135705775e-17 -0.03 0
4.7999387191e-17 -0.03 0
-5.59989896867e-17 -0.03 0
1.23895706041e-17 -0.03 0
1.89000290412e-16 -0.03 0
-4.92363418401e-17 -0.03 0
6.05640571359e-17 -0.03 0
1.11094125783e-16 -0.03 0
4.90541474185e-16 -0.03 0
4.82762169572e-16 -0.03 0
-4.48136317926e-17 -0.03 0
-6.70241065259e-17 -0.03 0
8.04996625374e-17 -0.03 0
-1.36935953405e-16 -0.03 0
1.01719535975e-16 -0.03 0
-1.36772233414e-16 -0.03 0
1.30528201975e-16 -0.03 0
1.99971386347e-16 -0.03 0
9.92721153594e-17 -0.03 0
1.77758897554e-16 -0.03 0
-8.96411938591e-17 -0.03 0
-1.3664581833e-16 -0.03 0
-3.07340265837e-17 -0.03 0
7.9009250196e-17 -0.03 0
1.8878592268e-16 -0.03 0
-2.41517188966e-16 -0.03 0
-4.20413870326e-17 -0.03 0
7.9694424539e-17 -0.03 0
-1.11361152145e-16 -0.03 0
-2.32590132892e-17 -0.03 0
-6.93847153685e-19 -0.03 0
-3.72826778132e-17 -0.03 0
1.67820172912e-17 -0.03 0
-7.43281421068e-17 -0.03 0
-8.3022976435e-17 -0.03 0
-1.21255405715e-16 -0.03 0
9.29040544386e-17 -0.03 0
1.02999057185e-16 -0.03 0
-7.49919404554e-17 -0.03 0
7.22296076348e-17 -0.03 0
2.66537689792e-17 -0.03 0
-3.56935051033e-16 -0.03 0
6.01333519204e-17 -0.03 0
-1.12291992342e-16 -0.03 0
1.55358064837e-16 -0.03 0
-2.86761983569e-17 -0.03 0
5.99255474131e-17 -0.03 0
4.29384628506e-17 -0.03 0
1.12768409448e-16 -0.03 0
1.03886458381e-16 -0.03 0
3.05341192458e-16 -0.03 0
-7.49372285915e-17 -0.03 0
-1.63983493846e-16 -0.03 0
-2.27746512229e-17 -0.03 0
-9.32709720356e-17 -0.03 0
-1.85363884948e-16 -0.03 0
-1.83267264661e-16 -0.03 0
-6.35428370295e-17 -0.03 0
9.19768234649e-17 -0.03 0
-1.58302976074e-16 -0.03 0
4.3788870052e-17 -0.03 0
-1.4107005174e-16 -0.03 0
1.85586685931e-16 -0.03 0
1.28805398806e-16 -0.03 0
-3.87932928654e-16 -0.03 0
-1.80126573234e-16 -0.03 0
7.36978400492e-17 -0.03 0
-8.84991860915e-17 -0.03 0
7.69159260982e-17 -0.03 0
9.15175047869e-17 -0.03 0
-2.91658221368e-17 -0.03 0
-8.58726157152e-17 -0.03 0
-1.28413788961e-16 -0.03 0
-9.3964982364e-18 -0.03 0
1.01244313301e-16 -0.03 0
2.4535916442e-16 -0.03 0
2.10933552106e-17 -0.03 0
-2.807277043e-16 -0.03 0
-8.19064546919e-17 -0.03 0
-1.86686514361e-16 -0.03 0
2.81648593108e-17 -0.03 0
3.38219604196e-16 -0.03 0
2.92207750761e-16 -0.03 0
7.30602155565e-17 -0.03 0
-2.43620859519e-16 -0.03 0
-1.36885784799e-16 -0.03 0
1.19217195121e-16 -0.03 0
-5.61002908012e-17 -0.03 0
2.17691207532e-17 -0.03 0
-4.12333716644e-16 -0.03 0
-7.0935676299e-17 -0.03 0
6.27165341716e-17 -0.03 0
2.19408898048e-16 -0.03 0
1.02566691578e-16 -0.03 0
4.15911851194e-17 -0.03 0
-7.30792957915e-17 -0.03 0
8.18991612803e-17 -0.03 0
5.1386169599e-17 -0.03 0
4.7408379969e-16 -0.03 0
4.98949546827e-18 -0.03 0
1.22928458162e-16 -0.03 0
-1.28564260161e-16 -0.03 0
-1.06775254884e-16 -0.03 0
-4.94831760706e-17 -0.03 0
1.15857371844e-16 -0.03 0
-1.27744889798e-17 -0.03 0
5.59873574055e-17 -0.03 0
-8.48810286584e-17 -0.03 0
3.6368726892e-17 -0.03 0
9.71994854235e-17 -0.03 0
1.11562371492e-16 -0.03 0
-2.20463133253e-16 -0.03 0
-1.58820402938e-16 -0.03 0
-1.325049581e-16 -0.03 0
-2.80508114017e-17 -0.03 0
2.12189792343e-17 -0.03 0
-8.08100978228e-17 -0.03 0
2.19541391189e-16 -0.03 0
6.46009688338e-17 -0.03 0
3.15561264037e-17 -0.03 0
1.22071873712e-16 -0.03 0
7.22697856335e-17 -0.03 0
9.09729738919e-17 -0.03 0
-4.06694493605e-19 -0.03 0
-6.80146117406e-17 -0.03 0
6.63749293676e-17 -0.03 0
-2.40783870195e-17 -0.03 0
-1.21201483953e-16 -0.03 0
3.9703326451e-16 -0.03 0
7.64999574604e-17 -0.03 0
-1.28760684081e-16 -0.03 0
1.01596952758e-16 -0.03 0
-6.68630846727e-17 -0.03 0
-2.53902575748e-16 -0.03 0
-1.94950088622e-16 -0.03 0
-1.51927627265e-16 -0.03 0
3.18465044174e-16 -0.03 0
1.90470122857e-16 -0.03 0
1.27382050915e-16 -0.03 0
3.9288393669e-18 -0.03 0
1.20464940365e-16 -0.03 0
-9.18828083896e-17 -0.03 0
-1.29475364428e-16 -0.03 0
1.04970041559e-17 -0.03 0
5.32666061798e-16 -0.03 0
3.0871219137e-17 -0.03 0
3.83243707787e-17 -0.03 0
-1.60851161692e-17 -0.03 0
1.00903891062e-17 -0.03 0
-3.44235888265e-16 -0.03 0
1.3773316199e-17 -0.03 0
-1.23932696822e-16 -0.03 0
7.99370732946e-18 -0.03 0
-1.11005647617e-17 -0.03 0
1.19014157155e-16 -0.03 0
1.74116076099e-16 -0.03 0
6.94901884447e-17 -0.03 0
1.23051277206e-16 -0.03 0
-3.73222208012e-16 -0.03 0
2.27347488051e-16 -0.03 0
3.89757884953e-16 -0.03 0
-5.51738373208e-17 -0.03 0
-1.0001404498e-16 -0.03 0
-1.53221988551e-16 -0.03 0
-2.73062136117e-16 -0.03 0
-1.88415054156e-16 -0.03 0
3.9481594441e-16 -0.03 0
2.68991177032e-17 -0.03 0
-5.63824315137e-17 -0.03 0
-1.45003548977e-17 -0.03 0
-3.3317583382e-17 -0.03 0
3.3709632913e-17 -0.03 0
9.57441289671e-18 -0.03 0
-5.67348797888e-17 -0.03 0
6.6375709611e-17 -0.03 0
2.71961784883e-17 -0.03 0
-4.38363664311e-16 -0.03 0
2.14041763967e-16 -0.03 0
3.49698069126e-17 -0.03 0
-3.27622620998e-16 -0.03 0
1.67716211755e-16 -0.03 0
1.07119231485e-16 -0.03 0
1.16875787992e-16 -0.03 0
8.01079766208e-17 -0.03 0
-9.68196271886e-17 -0.03 0
5.96149574617e-17 -0.03 0
4.32093469801e-16 -0.03 0
1.25100004797e-16 -0.03 0
-5.84390923563e-19 -0.03 0
-1.09755809869e-16 -0.03 0
-6.3595373505e-17 -0.03 0
7.81296877606e-17 -0.03 0
5.06196900936e-17 -0.03 0
-1.08344378716e-16 -0.03 0
-6.95805703567e-17 -0.03 0
-1.19789274285e-16 -0.03 0
-3.76093644233e-16 -0.03 0
5.35554210146e-17 -0.03 0
2.42343927993e-16 -0.03 0
-3.59185191873e-17 -0.03 0
-2.65519236162e-16 -0.03 0
1.25549310655e-16 -0.03 0
3.14926922647e-16 -0.03 0
3.09320969025e-17 -0.03 0
2.55909429794e-17 -0.03 0
2.5683371737e-16 -0.03 0
1.10751907615e-17 -0.03 0
7.07149551191e-17 -0.03 0
-8.68755782326e-17 -0.03 0
-1.85700092393e-16 -0.03 0
5.92261399434e-17 -0.03 0
1.07432140459e-16 -0.03 0
1.37417555602e-16 -0.03 0
-6.65082627671e-17 -0.03 0
1.61312306668e-16 -0.03 0
-5.02440714968e-17 -0.03 0
-1.35940255663e-16 -0.03 0
8.96878242181e-17 -0.03 0
-1.20674539545e-16 -0.03 0
1.69470317697e-17 -0.03 0
-1.32683584804e-16 -0.03 0
7.06928832379e-17 -0.03 0
1.68129159887e-17 -0.03 0
7.0896714182e-17 -0.03 0
2.70948412572e-17 -0.03 0
4.69998756409e-17 -0.03 0
-2.21960426835e-17 -0.03 0
8.01922864273e-17 -0.03 0
1.15335709854e-16 -0.03 0
6.25693025775e-17 -0.03 0
-3.69947745317e-16 -0.03 0
-4.53943088168e-17 -0.03 0
1.53895089956e-16 -0.03 0
1.54438257273e-16 -0.03 0
-1.10961454634e-16 -0.03 0
4.88049009716e-17 -0.03 0
-1.35571637421e-16 -0.03 0
-1.14044483134e-16 -0.03 0
1.70965481663e-17 -0.03 0
-1.03304913831e-16 -0.03 0
-2.15606961086e-18 -0.03 0
1.35544785252e-16 -0.03 0
5.4695615466e-17 -0.03 0
5.74551590353e-17 -0.03 0
6.89556292353e-18 -0.03 0
-2.65882331289e-17 -0.03 0
-1.38411849052e-16 -0.03 0
3.1973826378e-17 -0.03 0
1.40783910904e-16 -0.03 0
9.50059342641e-17 -0.03 0
-2.13358578448e-16 -0.03 0
-6.83493278557e-17 -0.03 0
-1.13165161226e-16 -0.03 0
-8.67644063152e-17 -0.03 0
1.01313773036e-16 -0.03 0
-2.12027936737e-17 -0.03 0
-2.24635251044e-16 -0.03 0
6.54062606393e-18 -0.03 0
1.48654346395e-16 -0.03 0
-7.80394885671e-17 -0.03 0
5.36096688094e-16 -0.03 0
2.23387339043e-16 -0.03 0
-1.45066297586e-16 -0.03 0
-7.85379974712e-17 -0.03 0
2.66950602322e-16 -0.03 0
-2.72394389914e-17 -0.03 0
1.07457042477e-16 -0.03 0
-3.72916179351e-17 -0.03 0
-9.28261133348e-17 -0.03 0
1.17186827559e-16 -0.03 0
1.86204280174e-16 -0.03 0
7.57381103477e-17 -0.03 0
1.43136562924e-16 -0.03 0
9.59983771904e-17 -0.03 0
-2.89952922211e-16 -0.03 0
2.82475343149e-17 -0.03 0
-4.56714985001e-17 -0.03 0
-1.15376919388e-16 -0.03 0
6.42608510504e-17 -0.03 0
9.55037666172e-17 -0.03 0
4.7076073969e-17 -0.03 0
-1.13565664772e-16 -0.03 0
-1.56545939927e-16 -0.03 0
4.85464213227e-17 -0.03 0
3.60304779062e-16 -0.03 0
-1.60005088815e-16 -0.03 0
-4.09453761613e-16 -0.03 0
8.46257628099e-17 -0.03 0
-5.01331917841e-17 -0.03 0
9.54872724074e-17 -0.03 0
2.80184104502e-16 -0.03 0
1.05889409286e-16 -0.03 0
-4.17395683409e-17 -0.03 0
7.75504168632e-17 -0.03 0
1.49465999934e-16 -0.03 0
1.4626320098e-16 -0.03 0
1.06045805132e-16 -0.03 0
5.79319773797e-17 -0.03 0
-3.71376786253e-17 -0.03 0
-3.3785926916e-16 -0.03 0
6.90867795139e-17 -0.03 0
7.83583102739e-17 -0.03 0
1.0138937934e-16 -0.03 0
1.3608920633e-16 -0.03 0
1.28926364593e-16 -0.03 0
-1.11633608539e-16 -0.03 0
1.87268118473e-16 -0.03 0
-1.65371645472e-16 -0.03 0
3.57421047279e-17 -0.03 0
-3.52271382585e-17 -0.03 0
1.56115022473e-16 -0.03 0
1.04110794273e-16 -0.03 0
6.53502447561e-17 -0.03 0
5.19049780596e-16 -0.03 0
1.29193760667e-16 -0.03 0
4.64998316327e-16 -0.03 0
-1.3120452857e-17 -0.03 0
2.88675024317e-17 -0.03 0
2.82032417127e-16 -0.03 0
-5.16619566708e-17 -0.03 0
1.72699045338e-16 -0.03 0
1.51966209534e-17 -0.03 0
-6.93818958553e-17 -0.03 0
3.34750473552e-16 -0.03 0
-8.35016954898e-17 -0.03 0
-1.64762201108e-16 -0.03 0
-1.496474308e-16 -0.03 0
-1.1882268622e-16 -0.03 0
2.71485468284e-16 -0.03 0
6.42295862711e-17 -0.03 0
-1.43270298736e-16 -0.03 0
-3.83852168711e-17 -0.03 0
-9.98530353286e-17 -0.03 0
2.15671962947e-17 -0.03 0
6.45036785673e-18 -0.03 0
-3.71438688068e-18 -0.03 0
2.66612133073e-17 -0.03 0
2.54816147691e-16 -0.03 0
-1.1324541755e-16 -0.03 0
2.91852046017e-17 -0.03 0
2.27150591956e-17 -0.03 0
4.85147821929e-17 -0.03 0
-4.65292502029e-17 -0.03 0
-2.66224617871e-16 -0.03 0
3.34406704196e-17 -0.03 0
-3.26075754785e-17 -0.03 0
-2.83671565138e-17 -0.03 0
1.30101702717e-16 -0.03 0
1.93467158727e-16 -0.03 0
7.04387434129e-17 -0.03 0
1.00663134444e-16 -0.03 0
-6.4928024676e-17 -0.03 0
6.46994540429e-17 -0.03 0
5.25910297126e-17 -0.03 0
-2.36637015759e-16 -0.03 0
-4.31242756492e-17 -0.03 0
1.02745856114e-16 -0.03 0
7.12885652164e-17 -0.03 0
3.57549062162e-16 -0.03 0
2.38057032592e-17 -0.03 0
7.86468668141e-17 -0.03 0
-1.06112272493e-16 -0.03 0
7.46191597162e-17 -0.03 0
8.39533284321e-17 -0.03 0
-2.40242789299e-16 -0.03 0
-2.32457191437e-16 -0.03 0
-9.63481053442e-17 -0.03 0
1.67628456932e-16 -0.03 0
1.28676529586e-16 -0.03 0
1.71901868148e-17 -0.03 0
-2.54979655227e-17 -0.03 0
6.91677654548e-17 -0.03 0
1.32797197949e-16 -0.03 0
3.61060050827e-16 -0.03 0
7.51125049407e-17 -0.03 0
6.12921250816e-17 -0.03 0
1.76636197378e-16 -0.03 0
1.44935073574e-16 -0.03 0
-1.99592759538e-16 -0.03 0
-2.62676863745e-16 -0.03 0
8.47063037966e-17 -0.03 0
1.71195485079e-16 -0.03 0
-6.74262960143e-17 -0.03 0
-2.325579903e-17 -0.03 0
-6.86644342551e-17 -0.03 0
6.45855832526e-17 -0.03 0
-5.8236890414e-17 -0.03 0
3.17392227327e-17 -0.03 0
-3.30429324833e-16 -0.03 0
3.73890077499e-17 -0.03 0
6.24158120834e-17 -0.03 0
2.35240018036e-17 -0.03 0
2.02464130585e-16 -0.03 0
-1.73951422282e-16 -0.03 0
-6.24250998047e-17 -0.03 0
-5.50923035021e-17 -0.03 0
7.46083645121e-17 -0.03 0
-5.06006800243e-17 -0.03 0
-1.77605858284e-16 -0.03 0
1.10249711177e-16 -0.03 0
5.86125543444e-17 -0.03 0
9.51077498199e-17 -0.03 0
-1.08736564394e-16 -0.03 0
1.04224002821e-16 -0.03 0
3.64108828311e-18 -0.03 0
1.08198849474e-18 -0.03 0
-6.53736195861e-17 -0.03 0
9.51359203899e-17 -0.03 0
-2.49001454127e-17 -0.03 0
-1.52145743862e-17 -0.03 0
-3.22914897696e-17 -0.03 0
-1.27482576008e-16 -0.03 0
4.16959199237e-16 -0.03 0
5.68855339699e-16 -0.03 0
3.69893287282e-17 -0.03 0
-3.29971423043e-17 -0.03 0
-1.95037233545e-17 -0.03 0
-8.06244191295e-17 -0.03 0
3.95167755985e-17 -0.03 0
1.44741551885e-16 -0.03 0
-1.34362262403e-16 -0.03 0
8.57468146526e-17 -0.03 0
1.13421471459e-16 -0.03 0
7.2523812415e-17 -0.03 0
1.66282265759e-17 -0.03 0
-1.29673143637e-16 -0.03 0
6.52965378749e-17 -0.03 0
5.59543050507e-17 -0.03 0
1.19471871674e-16 -0.03 0
2.05112395389e-16 -0.03 0
3.6545284591e-17 -0.03 0