# vtk DataFile Version 2.0
Generated with Solid Solver
ASCII
DATASET UNSTRUCTURED_GRID
POINTS 1757 float 
1.0 0.0 0.0
0.0 -1.0 0.0
-1.0 0.0 0.0
0.0 1.0 0.0
-0.995380413423 -0.0960095441785 0.0
-0.98261780075 -0.185640129414 0.0
-0.96322958769 -0.268679663165 0.0
-0.938560776953 -0.345113992712 0.0
-0.90978672778 -0.415076029126 0.0
-0.877921711568 -0.478804206705 0.0
-0.843830985157 -0.536609046223 0.0
-0.808244689242 -0.588846773203 0.0
-0.771772366024 -0.635898903162 0.0
-0.73491739518 -0.678156635492 0.0
-0.698090641905 -0.716009396366 0.0
-0.661623210588 -0.749836466979 0.0
-0.6257779638 -0.780001243603 0.0
-0.590759898542 -0.806847409536 0.0
-0.55672527119 -0.83069667895 0.0
-0.523789567821 -0.851847690988 0.0
-0.4920344724 -0.870575716391 0.0
-0.461513788672 -0.887133035607 0.0
-0.432258543883 -0.901749716518 0.0
-0.404281323176 -0.914634687584 0.0
-0.377579883859 -0.925977014458 0.0
-0.352140279087 -0.935947233472 0.0
-0.327939363362 -0.944698774191 0.0
-0.304946964352 -0.952369334309 0.0
-0.283127619241 -0.959082244243 0.0
-0.262442049932 -0.964947755284 0.0
-0.24284833385 -0.970064269389 0.0
-0.224302876543 -0.974519481373 0.0
-0.206761193898 -0.978391439403 0.0
-0.190178533755 -0.981749522688 0.0
-0.174510373217 -0.984655335455 0.0
-0.159712796062 -0.987163523827 0.0
-0.145742818731 -0.989322511009 0.0
-0.132558585798 -0.99117517187 0.0
-0.120119553476 -0.992759433535 0.0
-0.108386608834 -0.994108818503 0.0
-0.0973221399841 -0.995252933213 0.0
-0.0868900892702 -0.996217904068 0.0
-0.0770559742282 -0.997026768365 0.0
-0.0677868864448 -0.997699823607 0.0
-0.0590514752917 -0.998254939014 0.0
-0.0508199228057 -0.998707832875 0.0
-0.0430639085463 -0.999072319595 0.0
-0.0357565614578 -0.999360529695 0.0
-0.0288724199598 -0.999583104782 0.0
-0.0223873675603 -0.99974937148 0.0
-0.0162785878776 -0.99986749501 0.0
-0.0105245046693 -0.999944615867 0.0
-0.00510472847989 -0.999986970789 0.0
0.00510472847988 -0.999986970789 0.0
0.0105245046693 -0.999944615867 0.0
0.0162785878776 -0.99986749501 0.0
0.0223873675602 -0.99974937148 0.0
0.0288724199598 -0.999583104782 0.0
0.0357565614578 -0.999360529695 0.0
0.0430639085462 -0.999072319595 0.0
0.0508199228056 -0.998707832875 0.0
0.0590514752916 -0.998254939014 0.0
0.0677868864446 -0.997699823607 0.0
0.077055974228 -0.997026768365 0.0
0.08689008927 -0.996217904069 0.0
0.0973221399839 -0.995252933213 0.0
0.108386608834 -0.994108818503 0.0
0.120119553476 -0.992759433535 0.0
0.132558585798 -0.99117517187 0.0
0.145742818731 -0.989322511009 0.0
0.159712796061 -0.987163523827 0.0
0.174510373217 -0.984655335455 0.0
0.190178533754 -0.981749522689 0.0
0.206761193898 -0.978391439403 0.0
0.224302876542 -0.974519481373 0.0
0.24284833385 -0.97006426939 0.0
0.262442049931 -0.964947755284 0.0
0.28312761924 -0.959082244244 0.0
0.304946964351 -0.95236933431 0.0
0.32793936336 -0.944698774191 0.0
0.352140279085 -0.935947233473 0.0
0.377579883857 -0.925977014459 0.0
0.404281323174 -0.914634687584 0.0
0.432258543881 -0.901749716519 0.0
0.46151378867 -0.887133035608 0.0
0.492034472398 -0.870575716392 0.0
0.523789567819 -0.851847690989 0.0
0.556725271188 -0.830696678951 0.0
0.590759898539 -0.806847409538 0.0
0.625777963797 -0.780001243606 0.0
0.661623210585 -0.749836466982 0.0
0.698090641902 -0.716009396369 0.0
0.734917395177 -0.678156635496 0.0
0.771772366021 -0.635898903165 0.0
0.80824468924 -0.588846773206 0.0
0.843830985155 -0.536609046227 0.0
0.877921711566 -0.478804206707 0.0
0.909786727779 -0.415076029129 0.0
0.938560776952 -0.345113992715 0.0
0.96322958769 -0.268679663167 0.0
0.98261780075 -0.185640129415 0.0
0.995380413423 -0.0960095441792 0.0
0.995184726672 0.0980171403292 0.0
0.980785280403 0.195090322016 0.0
0.956940335732 0.290284677254 0.0
0.923879532512 0.382683432364 0.0
0.881921264349 0.471396736825 0.0
0.831469612303 0.555570233018 0.0
0.773010453364 0.634393284162 0.0
0.707106781188 0.707106781185 0.0
0.634393284165 0.773010453362 0.0
0.555570233021 0.831469612302 0.0
0.471396736827 0.881921264348 0.0
0.382683432366 0.923879532511 0.0
0.290284677255 0.956940335732 0.0
0.195090322016 0.980785280403 0.0
0.0980171403296 0.995184726672 0.0
-0.0980171403292 0.995184726672 0.0
-0.195090322016 0.980785280403 0.0
-0.290284677254 0.956940335732 0.0
-0.382683432364 0.923879532512 0.0
-0.471396736825 0.881921264349 0.0
-0.555570233018 0.831469612303 0.0
-0.634393284162 0.773010453364 0.0
-0.707106781185 0.707106781188 0.0
-0.773010453362 0.634393284165 0.0
-0.831469612302 0.555570233021 0.0
-0.881921264348 0.471396736827 0.0
-0.923879532511 0.382683432366 0.0
-0.956940335732 0.290284677255 0.0
-0.980785280403 0.195090322016 0.0
-0.995184726672 0.0980171403296 0.0
-4.96996675457e-15 -1.93548667772e-12 0.0
0.00127619043384 -0.500000000001 0.0
-0.00722089405625 -0.748268261399 0.0
0.00228876066458 -0.875556181739 0.0
-0.281695474279 -0.627991907605 0.0
0.276565504347 -0.648709845297 0.0
0.165521166582 -0.808905078842 0.0
-0.152585357215 -0.822741196601 0.0
0.315604058399 -0.24609675106 0.0
0.102417520922 -0.891264985708 0.0
-0.475635334484 -0.159294667465 0.0
-0.0835204948431 -0.904755269877 0.0
-0.00325062230283 -0.936932840139 0.0
0.443692867126 0.230749263633 0.0
0.0519377913903 -0.943993046933 0.0
-0.376036192266 0.329953197425 0.0
-0.0521516255689 -0.947879580655 0.0
0.515606575531 -0.501630943311 0.0
-0.240308280436 -0.343851039704 0.0
-0.533518994474 -0.465307197087 0.0
-0.287804041658 -0.805642358412 0.0
0.0445238380782 0.430295701266 0.0
0.311896404579 -0.800379386155 0.0
-0.13107597474 -0.667419094267 0.0
0.123108305654 -0.661752158477 0.0
0.0628248294012 -0.806365098603 0.0
0.187292166309 -0.484108441138 0.0
-0.0641832406134 -0.819165573216 0.0
0.0798579288498 -0.275607470425 0.0
0.638459931996 -0.202013346611 0.0
0.0186626287027 -0.965141212843 0.0
0.45526094991 -0.681833875225 0.0
-0.0129772315159 -0.968247403008 0.0
-0.171540104927 -0.497908016167 0.0
-0.155127552345 -0.915207147269 0.0
0.183001231559 -0.901567275323 0.0
-0.426144747324 -0.715098931219 0.0
-0.0162892183335 -0.624792928552 0.0
-0.035730323476 -0.903037334438 0.0
-0.232827639067 -0.88874456779 0.0
0.0975199139805 -0.95072651026 0.0
-0.0981552596427 -0.949236823345 0.0
-0.648667569896 0.129148118328 0.0
-0.279554044891 0.0627654755135 0.0
0.273151102826 0.0171449977907 0.0
0.0298555050875 -0.90994366709 0.0
-0.212344149878 -0.737463281314 0.0
-0.229946357699 0.611891537337 0.0
0.354045803606 0.561510173556 0.0
-0.0818860901218 -0.36457251704 0.0
-0.134091639038 -0.159199321554 0.0
-0.695625031714 -0.277606106328 0.0
-0.0867851478723 -0.736672431226 0.0
0.265337120787 -0.869981074022 0.0
0.348760961551 -0.493554128188 0.0
-0.00320990135474 -0.812594716229 0.0
-0.329186847098 -0.471221989663 0.0
0.0460713866435 -0.972062035364 0.0
-0.0375937409611 -0.973405027164 0.0
0.0535682648895 -0.864336593337 0.0
0.145483624803 -0.941368692522 0.0
0.0736239261235 -0.727615112901 0.0
0.697430582005 0.0837555012036 0.0
-0.100737206717 0.233330119735 0.0
-0.556100193995 -0.633724671947 0.0
0.00232821863967 -0.980465167455 0.0
0.0749759373331 -0.577439211916 0.0
0.680855415879 -0.415051663416 0.0
0.206146806604 -0.718315341021 0.0
-0.421930988685 -0.574802042479 0.0
0.11279966401 0.192512083541 0.0
0.460339190007 -0.0980710125314 0.0
0.0312756254498 0.706087755727 0.0
-0.040272424356 -0.858092004677 0.0
0.420061865811 -0.786049287866 0.0
0.586966069727 -0.62991917776 0.0
-0.380981551573 -0.827227698018 0.0
-0.103259760795 -0.570508864702 0.0
0.492756350161 -0.313708161781 0.0
0.0874955387678 -0.404713379013 0.0
-0.407564399695 -0.320423699857 0.0
-0.628919985203 0.391318787041 0.0
-0.0699640992687 -0.968896636178 0.0
-0.125152864878 -0.868227961676 0.0
0.0682876879855 -0.909252863859 0.0
0.0266399275605 -0.939207803 0.0
0.024631671702 -0.683106747508 0.0
0.189737416738 -0.13866360915 0.0
0.585215188034 0.450819219258 0.0
0.21785306249 -0.351336809722 0.0
-0.0271807897333 -0.946087422773 0.0
0.0756038792145 -0.966069497566 0.0
-0.298382974098 -0.178452310631 0.0
0.110518716749 -0.836650464469 0.0
-0.00264273972314 -0.90600804268 0.0
-0.305474440976 -0.716515505544 0.0
-0.134098046274 -0.954681405258 0.0
-0.223207038653 -0.817004808206 0.0
-0.447544946165 0.557155518089 0.0
0.34051079299 -0.862151144016 0.0
-0.298042796814 -0.881681319918 0.0
-0.769097087 -0.0583313654367 0.0
0.235752952896 -0.800651841032 0.0
0.188159568073 -0.587366695661 0.0
-0.672181311867 -0.518770972668 0.0
0.114322329275 -0.778392343179 0.0
-0.194516208698 -0.591307758062 0.0
0.0187557175556 -0.983773357993 0.0
0.261285852013 0.368198218166 0.0
0.35743297867 -0.706299332218 0.0
-0.0373500264002 -0.698736700423 0.0
-0.0819440313114 -0.865476917287 0.0
-0.179035137098 -0.867736107652 0.0
-0.203508688916 -0.928442862871 0.0
-0.149960306607 -0.756327532646 0.0
-0.0384840194478 -0.780550639081 0.0
-0.451807703057 0.0482365390086 0.0
-0.0126098573182 -0.983928124157 0.0
0.235939510081 -0.91326563502 0.0
0.0215596456358 -0.841867333374 0.0
-0.184109888945 0.422443108965 0.0
0.374550658138 -0.601661169977 0.0
0.0128828283903 -0.160035124024 0.0
0.145394081967 -0.872900625084 0.0
-0.118308145889 -0.916653533869 0.0
0.0299899444326 -0.781967816991 0.0
0.193085013132 -0.848690188911 0.0
0.342764161569 -0.375186491603 0.0
0.139108539028 -0.721982686315 0.0
-0.520450424114 -0.742720287668 0.0
0.791510244481 -0.0614494340947 0.0
-0.0865753027393 -0.480543320587 0.0
-0.108780745819 -0.792998693675 0.0
-0.566281122187 -0.32470713474 0.0
0.186476176315 -0.941887746383 0.0
0.00180194513842 -0.95609312381 0.0
0.796826697394 -0.279168840706 0.0
0.679362570623 -0.539584903183 0.0
0.122771341382 -0.96395482973 0.0
0.247356495332 0.728704965441 0.0
-0.171736364808 -0.947995561586 0.0
0.500625473665 -0.745135744913 0.0
-0.0217695695247 -0.922438649325 0.0
-0.15066796653 -0.0133658365529 0.0
-0.0353924586132 -0.253896747296 0.0
0.281295316404 -0.720785267167 0.0
-0.454589975051 -0.800300057754 0.0
0.0865964804951 -0.48952242347 0.0
0.737591674888 0.295325894026 0.0
[...]
POINT_DATA 1757
VECTORS Displacement float
0.0 -0.15 0
-9.17956254521e-06 -0.141059911754 0
0.0 -0.15 0
0.0 -0.15 0
-0.00025585159333 -0.149488023297 0
-0.000395159909652 -0.149267040119 0
-0.000467413361436 -0.149122599498 0
-0.000487396061895 -0.149015888106 0
-0.000474602462389 -0.148919722473 0
-0.000441046307496 -0.148819427185 0
-0.000387457157242 -0.148720491179 0
-0.000321094374444 -0.148614597628 0
-0.000243137730763 -0.14849906736 0
-0.000161074925637 -0.148371674148 0
-7.31654757382e-05 -0.148237183817 0
1.42236977573e-05 -0.148090757784 0
0.000105957919041 -0.147936044935 0
0.000199148405268 -0.147772948153 0
0.000290398745625 -0.147598279452 0
0.000382629390231 -0.147414991091 0
0.000469953339758 -0.147223258841 0
0.000557134444677 -0.147018919145 0
0.000643300219721 -0.146804181961 0
0.000721569652106 -0.146586993538 0
0.000804549844982 -0.146353923494 0
0.000882921921173 -0.146107121352 0
0.000964841947946 -0.145848495902 0
0.00103782978928 -0.145573250765 0
0.00111441692835 -0.145279956756 0
0.00118959666085 -0.144941253684 0
0.00126022584979 -0.14457269438 0
0.00132888113727 -0.144126316772 0
0.00135689133526 -0.143655086955 0
0.00133058048885 -0.143311938867 0
0.00129702081985 -0.142969476991 0
0.00125647898149 -0.142591246409 0
0.00117189265026 -0.142388375921 0
0.00110076954303 -0.142178005554 0
0.00103040226208 -0.141970530648 0
0.000948051911053 -0.141749480818 0
0.000853236264247 -0.141669483199 0
0.000776095822275 -0.1415548547 0
0.000700666704922 -0.141445982724 0
0.000623078123618 -0.141339817394 0
0.000543144200425 -0.14126628201 0
0.000465639424443 -0.141234257044 0
0.000397130710635 -0.141190348121 0
0.00033154375885 -0.141151933117 0
0.000268988662469 -0.141120358771 0
0.000208219323182 -0.141095633869 0
0.000149382064036 -0.141077969054 0
9.39741121199e-05 -0.141066747963 0
4.08995027555e-05 -0.141060825615 0
-5.8323379418e-05 -0.141062165643 0
-0.000111068410968 -0.14106934294 0
-0.000166144323015 -0.141080169364 0
-0.000224007017958 -0.141097688643 0
-0.000285305566612 -0.141122416066 0
-0.000348407386715 -0.141154031828 0
-0.000413547911993 -0.141192789886 0
-0.000481749853964 -0.14123681255 0
-0.00055980875997 -0.141268936654 0
-0.000639765667428 -0.141344041825 0
-0.00071678792378 -0.141448656653 0
-0.000793650940547 -0.141557669041 0
-0.000873046668357 -0.14166906203 0
-0.000957534792732 -0.141753573563 0
-0.00104605775696 -0.141971631553 0
-0.0011160344273 -0.142179635541 0
-0.00118936785658 -0.14238755215 0
-0.00126622240845 -0.142590759186 0
-0.00131856405568 -0.14296859281 0
-0.00134786546118 -0.143314735839 0
-0.00136766769003 -0.143661880421 0
-0.00134065791492 -0.144127630818 0
-0.00128590189517 -0.14457018221 0
-0.00120430136307 -0.144954341575 0
-0.00113211280048 -0.145279822722 0
-0.00105462288657 -0.145579753149 0
-0.000975420863436 -0.145853843446 0
-0.000898695427033 -0.146111521022 0
-0.000820729537584 -0.146357159716 0
-0.000737620965287 -0.146589179 0
-0.000657018204051 -0.146813447591 0
-0.000570603395532 -0.147025708599 0
-0.000482664693718 -0.147226267103 0
-0.000393101385779 -0.147418760528 0
-0.000305032958193 -0.147604044778 0
-0.000212781677779 -0.14777754174 0
-0.000120313590507 -0.147942173923 0
-3.02407413427e-05 -0.148098946197 0
6.19442963638e-05 -0.148242072355 0
0.000148559362881 -0.148378867552 0
0.000232122227316 -0.148504904206 0
0.000309333122004 -0.148621664583 0
0.000377025537806 -0.148728591697 0
0.000429290417789 -0.14883149223 0
0.000458902564423 -0.148927205003 0
0.000478072953628 -0.149028270994 0
0.000451039446815 -0.149143815123 0
0.000384018135017 -0.149285091634 0
0.000252958012961 -0.149528078242 0
0.0 -0.15 0
0.0 -0.15 0
0.0 -0.15 0
0.0 -0.15 0
0.0 -0.15 0
0.0 -0.15 0
0.0 -0.15 0
0.0 -0.15 0
0.0 -0.15 0
0.0 -0.15 0
0.0 -0.15 0
0.0 -0.15 0
0.0 -0.15 0
0.0 -0.15 0
0.0 -0.15 0
0.0 -0.15 0
0.0 -0.15 0
0.0 -0.15 0
0.0 -0.15 0
0.0 -0.15 0
0.0 -0.15 0
0.0 -0.15 0
0.0 -0.15 0
0.0 -0.15 0
0.0 -0.15 0
0.0 -0.15 0
0.0 -0.15 0
0.0 -0.15 0
0.0 -0.15 0
0.0 -0.15 0
-1.49064014309e-06 -0.147867155091 0
-1.26864773676e-06 -0.145648920624 0
-2.33734517641e-05 -0.143725235779 0
-8.10998672111e-06 -0.142392193167 0
-0.0004633695029 -0.145970456107 0
0.000437918894916 -0.145859859279 0
0.00019144546617 -0.144062251044 0
-0.000164637039834 -0.143822554755 0
0.000374241482107 -0.147469760155 0
-9.915763498e-05 -0.142706100458 0
-0.000388402601523 -0.14815827688 0
0.00012332449077 -0.142401896256 0
4.43731248877e-06 -0.141712068397 0
0.000167802132232 -0.148899322852 0
-0.000224258579863 -0.141776796416 0
-0.000125451310728 -0.148997463712 0
0.00022657886195 -0.141736343288 0
0.000490186506439 -0.147624101699 0
-0.000369172191317 -0.146906204068 0
-0.000510296309089 -0.147757958154 0
-0.000133386777672 -0.145467359015 0
1.50182784277e-05 -0.148988644932 0
0.000105016245174 -0.145741377747 0
-0.000304178438853 -0.144802202217 0
0.000277052820425 -0.144803145127 0
9.40574946406e-05 -0.143286192265 0
0.000355418336073 -0.146119435399 0
-9.52618492584e-05 -0.143163839109 0
0.000119772482409 -0.146868662424 0
0.000403022829447 -0.148564473938 0
-0.000119068600768 -0.141429983174 0
0.000297325590284 -0.147056347288 0
7.35301608413e-05 -0.141386594293 0
-0.000343228049971 -0.145994578116 0
0.000305195059395 -0.14312409934 0
-0.000252404438527 -0.143659462828 0
-0.000256772689748 -0.146820676453 0
-4.63829159579e-05 -0.144788331996 0
4.68578700581e-05 -0.142147721304 0
0.000222702325002 -0.144529303843 0
-0.000458338167638 -0.14206712581 0
0.000433932310876 -0.142087101994 0
-0.00019123882373 -0.149101145062 0
-0.000193033106759 -0.148273616511 0
0.000206618155609 -0.148145665666 0
-6.40239089745e-05 -0.142052614599 0
-0.000350148626652 -0.144949232529 0
-4.14532688592e-05 -0.14941059281 0
6.5599323806e-05 -0.149407415276 0
-0.000150815733774 -0.146460010889 0
-0.000164982418372 -0.147393187379 0
-0.000453390656003 -0.148610841307 0
-0.000200331021282 -0.144042375541 0
-0.00017275916417 -0.14506296438 0
0.000498297941622 -0.146817640714 0
-1.23385138103e-05 -0.143077807105 0
-0.00049561916543 -0.146789746207 0
-0.000313338587152 -0.141458752902 0
0.000246131796477 -0.141404493729 0
3.20635049036e-06 -0.142642112271 0
-0.000546708148235 -0.142761980748 0
0.000163847975172 -0.144064453359 0
0.000192831123891 -0.149146873995 0
-5.38259807144e-05 -0.148547370125 0
-0.000334646418037 -0.147662376469 0
-2.5009282885e-05 -0.141252169948 0
0.000171826273259 -0.145221267349 0
0.000477118753701 -0.148388235318 0
0.000357467767921 -0.144996321056 0
-0.000482891435866 -0.147008856334 0
6.49115285077e-05 -0.148449997805 0
0.000340513828114 -0.148254447613 0
5.05553995733e-06 -0.149523092588 0
-2.35491526849e-05 -0.142654818259 0
8.71560356907e-06 -0.146730380438 0
0.00030989451992 -0.147819055558 0
0.000115922836402 -0.146385838581 0
-0.000241525173158 -0.145341222645 0
0.000478151741911 -0.147883008727 0
0.000161990292464 -0.146266194838 0
-0.000472172753965 -0.147553693139 0
-0.000103945590941 -0.14946475986 0
0.000431531264262 -0.141640941129 0
-7.45806556061e-06 -0.143152541173 0
-0.000132257138812 -0.142244893626 0
-0.000109620316766 -0.141723556745 0
5.54931727531e-05 -0.144328653487 0
0.000210259878119 -0.147543041229 0
9.31204943545e-05 -0.149489683329 0
0.000339410508267 -0.14681173337 0
0.000111257024105 -0.1416502769 0
-0.000461506974024 -0.141716484513 0
-0.000327603982345 -0.147633286611 0
9.2482565194e-05 -0.143303686713 0
-2.45129963205e-06 -0.142053183341 0
-0.00036350456115 -0.145864095865 0
0.000638686969313 -0.142480531763 0
-0.000168976580324 -0.144672369698 0
-7.04393316516e-05 -0.149486592061 0
-0.000274037847007 -0.145986474587 0
0.000314522849737 -0.145484119215 0
-0.000238646567714 -0.149119682544 0
0.000198025796575 -0.144894193843 0
0.000380749811131 -0.145590071866 0
-0.000435655374385 -0.148245335971 0
0.0002017408563 -0.143848630736 0
-0.000400264633388 -0.145602244711 0
-0.000153567804397 -0.141241710674 0
9.06252153473e-05 -0.148960401193 0
0.000330589858128 -0.146321751318 0
-9.91090955679e-05 -0.144211106634 0
-1.76842205708e-05 -0.142796813236 0
1.50002146936e-05 -0.143820708984 0
0.000531020151174 -0.143858595911 0
-0.000284957862882 -0.144290921944 0
-8.33789232145e-05 -0.143455702594 0
-0.000252625413671 -0.148544579511 0
9.03309868879e-05 -0.141226431341 0
-0.00045605745 -0.144515311067 0
1.22103885045e-05 -0.142782467695 0
-5.87803624502e-05 -0.149018524469 0
0.000465005727135 -0.146669322625 0
1.24549928351e-05 -0.147308955616 0
-3.50028075247e-05 -0.143344116991 0
0.000250220423311 -0.142624987215 0
5.27070777909e-05 -0.143423333981 0
5.23390876879e-05 -0.144129027418 0
0.000461314464799 -0.14715676121 0
0.000285345906094 -0.144464587872 0
-8.28195680623e-05 -0.147411701634 0
0.000227063480483 -0.149180103985 0
-0.000186174593114 -0.145849784473 0
-0.000187863866002 -0.143682110089 0
-0.000492372034113 -0.14812264209 0
-0.00066615690512 -0.143459360877 0
-1.71350892828e-05 -0.1415047722 0
0.000434520650533 -0.148879091258 0
0.000401829354034 -0.148259597616 0
-0.000702334252905 -0.142243672713 0
2.75776109023e-05 -0.149623907323 0
0.000690576992329 -0.14314438279 0
7.91580636434e-05 -0.147298342877 0
5.09509126837e-05 -0.141893523282 0
-0.000137487700677 -0.147899770199 0
-5.52877454159e-05 -0.14693355206 0
0.000356759253132 -0.145643020742 0
7.82933390106e-05 -0.146974832311 0
0.000179722564782 -0.145798806184 0
0.000107582533277 -0.149524949469 0
-0.000407813046795 -0.145320517705 0
0.000157110804039 -0.14207462772 0
-0.000189571593352 -0.144713810165 0
0.000234965785647 -0.1487539269 0
-0.000436766050235 -0.146436415635 0
0.000464818190115 -0.146178631912 0
-0.000301233170786 -0.142568428337 0
-1.50513055085e-05 -0.142730692348 0
-0.000476521375901 -0.148636888085 0
-7.37953964403e-06 -0.146186837442 0
0.000156244384372 -0.148546910547 0
-0.000471072106843 -0.146252137954 0
0.000295707218504 -0.14787691641 0
0.000398683968785 -0.141412144492 0
-3.93542636133e-05 -0.141887751594 0
-0.000320787066531 -0.148644173697 0
-0.000189793151229 -0.141592479038 0
-1.94978549663e-05 -0.142389932329 0
-0.00017949789931 -0.148933595467 0
-0.000214883412691 -0.146977770231 0
0.000155386695709 -0.144775617654 0
2.78730538865e-05 -0.142472294635 0
-7.71145279498e-05 -0.145272294297 0
0.000126187727549 -0.147913479625 0
-0.000264595138915 -0.142049133464 0
3.65094310929e-05 -0.149295751603 0
-0.000119212368201 -0.143347909248 0
-0.000131209046128 -0.148625842281 0
0.000219259361535 -0.141259737056 0
-0.000286516117908 -0.141303364618 0
0.000453827407804 -0.147251001124 0
-1.38508691804e-05 -0.149665843935 0
-0.000175660132911 -0.146122661558 0
0.000636990188268 -0.144638926007 0
0.000601590715483 -0.141815104203 0
-0.000102928125925 -0.149565200482 0
0.000263199022184 -0.14713463802 0
0.000511540654543 -0.147380698164 0
0.000275450945715 -0.14198235348 0
-0.000673990908839 -0.141871670089 0
0.000433854716123 -0.14654974741 0
-0.00030564881929 -0.1464798162 0
-0.000523250105921 -0.147244656432 0
-0.00025746469494 -0.14654391661 0
-0.000527552480428 -0.145528578392 0
1.88775875815e-05 -0.142896882741 0
0.000111124432101 -0.149192156272 0
0.000371953122806 -0.14516727563 0
0.000315761978408 -0.148655492545 0
-0.000258236021317 -0.143066437902 0
5.26026228318e-05 -0.149678596131 0
-0.000132970345668 -0.149423718453 0
-1.13360867687e-05 -0.149310907717 0
-0.000496430623226 -0.148188265931 0
0.000123027701385 -0.14185655421 0
2.61304548034e-05 -0.145067885591 0
-3.36786474127e-05 -0.1496978601 0
6.54984325245e-06 -0.142270934592 0
-0.000464338126751 -0.141468428359 0
-0.000295405999576 -0.148101587314 0
0.00050088095029 -0.147986426911 0
-0.000376900736708 -0.149060870105 0
-0.000125957123394 -0.141929904996 0
0.00017017716661 -0.149139950218 0
-0.000380653234998 -0.147177310565 0
-0.000472936979022 -0.147482571916 0
0.000125533328953 -0.143663159836 0
-0.000261334446436 -0.14438820285 0
-0.000422048206381 -0.146530640281 0
7.43194764817e-05 -0.143810200148 0
0.000292291526311 -0.145632857603 0
0.000617874472892 -0.145253716151 0
0.000396616405054 -0.14614825967 0
-6.38491976022e-05 -0.148199070561 0
0.000286397641973 -0.144673690882 0
-4.88423761403e-05 -0.142988344213 0
1.09293890806e-05 -0.141156113341 0
-0.000105062512084 -0.143855976625 0
-7.3677794446e-05 -0.141160146765 0
0.000406546380654 -0.147915472821 0
-0.000148280920049 -0.147804862609 0
-0.000281756138672 -0.148090111606 0
-0.000271318554217 -0.14515342867 0
0.00011081459394 -0.147723594292 0
-0.000417246396996 -0.148419059616 0
0.000145624203072 -0.141476436899 0
-0.00034933772401 -0.144785889449 0
0.000715719623099 -0.142061517619 0
-0.000156752174171 -0.144264067174 0
-5.93570077997e-05 -0.149685248184 0
0.000221342628141 -0.148522446716 0
-0.000471090463189 -0.147144270207 0
-0.00049755879726 -0.146484701785 0
1.44348318001e-05 -0.14870066683 0
5.89029386961e-05 -0.141540535062 0
0.000304566230912 -0.141566689583 0
-8.11618219572e-05 -0.149229790809 0
-6.07109406041e-05 -0.142282950213 0
-5.16147045021e-05 -0.142538647567 0
0.000283407140332 -0.145214877219 0
-0.000150705156608 -0.143621583727 0
-0.000226561130536 -0.14771681949 0
3.59331588733e-05 -0.145119038293 0
3.54505480178e-05 -0.14310801294 0
-0.000863561636513 -0.142915022089 0
0.000158658031402 -0.144403181573 0
-0.000400736233511 -0.147382623972 0
0.000258914237088 -0.142290132307 0
-2.17921416392e-05 -0.142200543933 0
1.45577774108e-05 -0.146617007314 0
3.32847302298e-05 -0.1497340669 0
0.000296219558476 -0.146402758295 0
0.000218886967096 -0.146673034992 0
0.00024159479472 -0.143683604376 0
-8.0519345212e-05 -0.141576079536 0
0.000167121106658 -0.14626010627 0
-7.51123167274e-05 -0.147617530103 0
-0.000189593548967 -0.148631026044 0
-0.000325265823027 -0.141637609676 0
-0.000206988665674 -0.142353798261 0
0.000260589754543 -0.144240698837 0
-0.000206292026996 -0.144374422294 0
-0.000513509149059 -0.147659402782 0
0.000126909895278 -0.149478166407 0
-0.000406343640829 -0.141343784897 0
9.30639702155e-05 -0.142754702975 0
0.000465273547942 -0.148431215887 0
-0.000704376397256 -0.144002737223 0
4.22022542567e-05 -0.144678653172 0
0.000137112240834 -0.147242622555 0
0.000328951428964 -0.141292762197 0
-0.000408121661465 -0.145521169996 0
-1.97590233277e-05 -0.143402081443 0
4.47673876519e-05 -0.142948395718 0
-4.82038917273e-05 -0.141381978631 0
-0.000211615284937 -0.141419817152 0
1.83278300156e-05 -0.148200548798 0
-0.000278424485537 -0.144409423443 0
-7.94822230387e-05 -0.146595575851 0
-0.000309402238358 -0.145210490927 0
-0.000160202652079 -0.147148292616 0
-0.000107728146415 -0.149304984693 0
5.03602554992e-05 -0.145243401525 0
-0.000149747652359 -0.145023660138 0
9.08547895102e-05 -0.145851748173 0
-5.54438973887e-06 -0.144382334393 0
0.000429243779059 -0.147918951508 0
-3.50951825762e-05 -0.146153243175 0
-2.59500128769e-06 -0.143081483532 0
0.000465277339822 -0.148730972643 0
-0.000444820245165 -0.147901874368 0
9.21786200199e-06 -0.14976677632 0
-0.000659571996247 -0.145119785079 0
0.000309801324644 -0.145140507017 0
0.000598634882991 -0.14161962942 0
0.000143053278775 -0.143007076004 0
1.06122462197e-05 -0.142398763197 0
0.000128865342221 -0.148260968327 0
-0.000314364476521 -0.147233785855 0
-1.04142345925e-05 -0.144044960734 0
8.82326679405e-05 -0.147614726817 0
0.000287971776468 -0.146754990072 0
0.000281807041932 -0.148169881038 0
0.00050361678629 -0.147180180439 0
9.94163614632e-05 -0.143652402347 0
0.00021909760986 -0.146680327604 0
0.000140981409419 -0.143482897081 0
0.000416507690317 -0.148248008336 0
7.29219823047e-06 -0.14187940992 0
-9.0073971011e-06 -0.142504231919 0
0.000139045466336 -0.141324721476 0
6.57110536979e-05 -0.149709483755 0
0.000267930673601 -0.148239811478 0
-0.000323147857152 -0.146379411728 0
-0.000623832221297 -0.141626875662 0
-0.000462849229736 -0.148889742776 0
-0.000358020636808 -0.148798629004 0
-3.02921754367e-05 -0.14884476676 0
0.000338908394924 -0.147437025669 0
-0.000150154347197 -0.14924106236 0
-0.000134547696314 -0.144130692221 0
0.000135200735969 -0.149211038255 0
6.40415682723e-05 -0.14876062616 0
0.000449748324964 -0.147559942698 0
-4.00121788564e-05 -0.144463756954 0
7.47748739301e-05 -0.145948565913 0
-0.00033476870746 -0.145614430534 0
-0.000125595437554 -0.148336010311 0
4.61696181741e-05 -0.14465469628 0
-3.53029304774e-05 -0.149763576689 0
0.000173180983014 -0.144425274649 0
0.000894075697353 -0.143514542542 0
8.51678125987e-05 -0.145449415451 0
-0.00040824288258 -0.147776953147 0
0.000431610529819 -0.148544110815 0
6.78939361011e-05 -0.143058948802 0
-0.000473369184231 -0.142389904022 0
-0.000347855948122 -0.141852033021 0
-0.000188948948809 -0.141995358265 0
0.000859500140403 -0.142704862674 0
0.0004230106258 -0.142391468927 0
-5.21664700428e-05 -0.142868157403 0
8.24111401954e-08 -0.149767678834 0
0.000284016285396 -0.147518451836 0
0.000173331327811 -0.143738114315 0
0.000161654368546 -0.141172103621 0
0.000392741110218 -0.146704468463 0
0.000577629427647 -0.145820419737 0
0.000239689622459 -0.144439314004 0
8.95867065616e-05 -0.149644272827 0
-1.78721439735e-05 -0.149770999895 0
0.000430747431643 -0.146273546705 0
-0.000855257665074 -0.142510680806 0
0.000405712563258 -0.145415937908 0
-0.000229527411428 -0.141199120412 0
0.00019472064782 -0.141586672114 0
-3.13594685695e-06 -0.142547361283 0
0.000415271071244 -0.146022026834 0
-0.0002605443139 -0.145684061571 0
0.00033692715519 -0.149178129274 0
0.000415147681222 -0.141864658123 0
-0.000476942231365 -0.146345258939 0
0.000420497652651 -0.142748444514 0
0.000120309043072 -0.147350875023 0
-5.0601491414e-05 -0.141715142366 0
3.9595833903e-05 -0.14129407476 0
-0.000458305140297 -0.147965577503 0
-0.000424061417106 -0.143192429978 0
-0.000163549055535 -0.142898253035 0
0.000276382688748 -0.145066780028 0
-0.000213843599092 -0.146207153138 0
-0.000434691627484 -0.148546492765 0
0.000517122972916 -0.141462596119 0
-6.09981268137e-05 -0.149742140605 0
5.31722169072e-05 -0.149063916226 0
4.80230791979e-05 -0.141743126768 0
-8.02235580756e-05 -0.148768135992 0
-7.94270612931e-05 -0.145916522193 0
2.56140566232e-05 -0.142064298558 0
-0.000821460425052 -0.144652480556 0
-6.38880828388e-05 -0.143563955755 0
4.85045893286e-05 -0.149754178934 0
-0.000464280214402 -0.143914971057 0
-0.000233312949627 -0.143996842452 0
0.000470661623936 -0.148163521177 0
-0.000238659040165 -0.144042643086 0
0.000318097782452 -0.141747291677 0
-0.000218247049388 -0.149066945579 0
0.000424938220199 -0.145633862613 0
0.000838223740843 -0.144078874461 0
-0.000259091646959 -0.1474901181 0
0.000225636167005 -0.144102991321 0
-8.87856514917e-05 -0.141295731571 0
0.00015757322355 -0.148014016706 0
0.000345595096858 -0.148941761906 0
3.95028488485e-05 -0.147077121393 0
0.000270042233415 -0.145871581975 0
-7.89076260824e-05 -0.141895646179 0
-0.00050768244462 -0.14721758317 0
-0.000560399525099 -0.145961278452 0
0.000130085821566 -0.148892094767 0
0.000112901794164 -0.143407738163 0
-0.000415728002057 -0.145955800985 0
-0.000180410259844 -0.145550021195 0
6.32131384746e-05 -0.142280137067 0
0.000420822839235 -0.14340585403 0
-0.000344844607424 -0.148340147029 0
0.000345322016732 -0.144901244014 0
0.000880927855612 -0.142368626483 0
-0.000444555358835 -0.145710253379 0
0.00010978500785 -0.144160968903 0
-0.000238353044298 -0.149350492364 0
-6.13304139171e-05 -0.143706864509 0
0.000416970650665 -0.147606928115 0
0.000230623534489 -0.147896287414 0
0.000394354784855 -0.147141308729 0
-0.000515854685863 -0.146939182234 0
4.01549652951e-05 -0.142608560353 0
-5.71393482705e-05 -0.149460255946 0
8.19720916062e-05 -0.141145034449 0
-4.90677048861e-05 -0.143231353688 0
-0.000325302710607 -0.14843669805 0
1.33488364765e-05 -0.149263094431 0
-0.000151239499356 -0.141172289694 0
8.35945936289e-05 -0.149465470046 0
-6.6788911988e-05 -0.147271509493 0
0.000467788586781 -0.146250287265 0
-0.000248133264664 -0.145045889098 0
-0.000171042711372 -0.145522722106 0
-0.000255838703 -0.146673395727 0
0.000101586970711 -0.146540858049 0
0.000265018397002 -0.146087693847 0