# vtk DataFile Version 2.0
Generated with Solid Solver
ASCII
DATASET UNSTRUCTURED_GRID
POINTS 1757 float 
1.0 0.0 0.0
0.0 -1.0 0.0
-1.0 0.0 0.0
0.0 1.0 0.0
-0.995380413423 -0.0960095441785 0.0
-0.98261780075 -0.185640129414 0.0
-0.96322958769 -0.268679663165 0.0
-0.938560776953 -0.345113992712 0.0
-0.90978672778 -0.415076029126 0.0
-0.877921711568 -0.478804206705 0.0
-0.843830985157 -0.536609046223 0.0
-0.808244689242 -0.588846773203 0.0
-0.771772366024 -0.635898903162 0.0
-0.73491739518 -0.678156635492 0.0
-0.698090641905 -0.716009396366 0.0
-0.661623210588 -0.749836466979 0.0
-0.6257779638 -0.780001243603 0.0
-0.590759898542 -0.806847409536 0.0
-0.55672527119 -0.83069667895 0.0
-0.523789567821 -0.851847690988 0.0
-0.4920344724 -0.870575716391 0.0
-0.461513788672 -0.887133035607 0.0
-0.432258543883 -0.901749716518 0.0
-0.404281323176 -0.914634687584 0.0
-0.377579883859 -0.925977014458 0.0
-0.352140279087 -0.935947233472 0.0
-0.327939363362 -0.944698774191 0.0
-0.304946964352 -0.952369334309 0.0
-0.283127619241 -0.959082244243 0.0
-0.262442049932 -0.964947755284 0.0
-0.24284833385 -0.970064269389 0.0
-0.224302876543 -0.974519481373 0.0
-0.206761193898 -0.978391439403 0.0
-0.190178533755 -0.981749522688 0.0
-0.174510373217 -0.984655335455 0.0
-0.159712796062 -0.987163523827 0.0
-0.145742818731 -0.989322511009 0.0
-0.132558585798 -0.99117517187 0.0
-0.120119553476 -0.992759433535 0.0
-0.108386608834 -0.994108818503 0.0
-0.0973221399841 -0.995252933213 0.0
-0.0868900892702 -0.996217904068 0.0
-0.0770559742282 -0.997026768365 0.0
-0.0677868864448 -0.997699823607 0.0
-0.0590514752917 -0.998254939014 0.0
-0.0508199228057 -0.998707832875 0.0
-0.0430639085463 -0.999072319595 0.0
-0.0357565614578 -0.999360529695 0.0
-0.0288724199598 -0.999583104782 0.0
-0.0223873675603 -0.99974937148 0.0
-0.0162785878776 -0.99986749501 0.0
-0.0105245046693 -0.999944615867 0.0
-0.00510472847989 -0.999986970789 0.0
0.00510472847988 -0.999986970789 0.0
0.0105245046693 -0.999944615867 0.0
0.0162785878776 -0.99986749501 0.0
0.0223873675602 -0.99974937148 0.0
0.0288724199598 -0.999583104782 0.0
0.0357565614578 -0.999360529695 0.0
0.0430639085462 -0.999072319595 0.0
0.0508199228056 -0.998707832875 0.0
0.0590514752916 -0.998254939014 0.0
0.0677868864446 -0.997699823607 0.0
0.077055974228 -0.997026768365 0.0
0.08689008927 -0.996217904069 0.0
0.0973221399839 -0.995252933213 0.0
0.108386608834 -0.994108818503 0.0
0.120119553476 -0.992759433535 0.0
0.132558585798 -0.99117517187 0.0
0.145742818731 -0.989322511009 0.0
0.159712796061 -0.987163523827 0.0
0.174510373217 -0.984655335455 0.0
0.190178533754 -0.981749522689 0.0
0.206761193898 -0.978391439403 0.0
0.224302876542 -0.974519481373 0.0
0.24284833385 -0.97006426939 0.0
0.262442049931 -0.964947755284 0.0
0.28312761924 -0.959082244244 0.0
0.304946964351 -0.95236933431 0.0
0.32793936336 -0.944698774191 0.0
0.352140279085 -0.935947233473 0.0
0.377579883857 -0.925977014459 0.0
0.404281323174 -0.914634687584 0.0
0.432258543881 -0.901749716519 0.0
0.46151378867 -0.887133035608 0.0
0.492034472398 -0.870575716392 0.0
0.523789567819 -0.851847690989 0.0
0.556725271188 -0.830696678951 0.0
0.590759898539 -0.806847409538 0.0
0.625777963797 -0.780001243606 0.0
0.661623210585 -0.749836466982 0.0
0.698090641902 -0.716009396369 0.0
0.734917395177 -0.678156635496 0.0
0.771772366021 -0.635898903165 0.0
0.80824468924 -0.588846773206 0.0
0.843830985155 -0.536609046227 0.0
0.877921711566 -0.478804206707 0.0
0.909786727779 -0.415076029129 0.0
0.938560776952 -0.345113992715 0.0
0.96322958769 -0.268679663167 0.0
0.98261780075 -0.185640129415 0.0
0.995380413423 -0.0960095441792 0.0
0.995184726672 0.0980171403292 0.0
0.980785280403 0.195090322016 0.0
0.956940335732 0.290284677254 0.0
0.923879532512 0.382683432364 0.0
0.881921264349 0.471396736825 0.0
0.831469612303 0.555570233018 0.0
0.773010453364 0.634393284162 0.0
0.707106781188 0.707106781185 0.0
0.634393284165 0.773010453362 0.0
0.555570233021 0.831469612302 0.0
0.471396736827 0.881921264348 0.0
0.382683432366 0.923879532511 0.0
0.290284677255 0.956940335732 0.0
0.195090322016 0.980785280403 0.0
0.0980171403296 0.995184726672 0.0
-0.0980171403292 0.995184726672 0.0
-0.195090322016 0.980785280403 0.0
-0.290284677254 0.956940335732 0.0
-0.382683432364 0.923879532512 0.0
-0.471396736825 0.881921264349 0.0
-0.555570233018 0.831469612303 0.0
-0.634393284162 0.773010453364 0.0
-0.707106781185 0.707106781188 0.0
-0.773010453362 0.634393284165 0.0
-0.831469612302 0.555570233021 0.0
-0.881921264348 0.471396736827 0.0
-0.923879532511 0.382683432366 0.0
-0.956940335732 0.290284677255 0.0
-0.980785280403 0.195090322016 0.0
-0.995184726672 0.0980171403296 0.0
-4.96996675457e-15 -1.93548667772e-12 0.0
0.00127619043384 -0.500000000001 0.0
-0.00722089405625 -0.748268261399 0.0
0.00228876066458 -0.875556181739 0.0
-0.281695474279 -0.627991907605 0.0
0.276565504347 -0.648709845297 0.0
0.165521166582 -0.808905078842 0.0
-0.152585357215 -0.822741196601 0.0
0.315604058399 -0.24609675106 0.0
0.102417520922 -0.891264985708 0.0
-0.475635334484 -0.159294667465 0.0
-0.0835204948431 -0.904755269877 0.0
-0.00325062230283 -0.936932840139 0.0
0.443692867126 0.230749263633 0.0
0.0519377913903 -0.943993046933 0.0
-0.376036192266 0.329953197425 0.0
-0.0521516255689 -0.947879580655 0.0
0.515606575531 -0.501630943311 0.0
-0.240308280436 -0.343851039704 0.0
-0.533518994474 -0.465307197087 0.0
-0.287804041658 -0.805642358412 0.0
0.0445238380782 0.430295701266 0.0
0.311896404579 -0.800379386155 0.0
-0.13107597474 -0.667419094267 0.0
0.123108305654 -0.661752158477 0.0
0.0628248294012 -0.806365098603 0.0
0.187292166309 -0.484108441138 0.0
-0.0641832406134 -0.819165573216 0.0
0.0798579288498 -0.275607470425 0.0
0.638459931996 -0.202013346611 0.0
0.0186626287027 -0.965141212843 0.0
0.45526094991 -0.681833875225 0.0
-0.0129772315159 -0.968247403008 0.0
-0.171540104927 -0.497908016167 0.0
-0.155127552345 -0.915207147269 0.0
0.183001231559 -0.901567275323 0.0
-0.426144747324 -0.715098931219 0.0
-0.0162892183335 -0.624792928552 0.0
-0.035730323476 -0.903037334438 0.0
-0.232827639067 -0.88874456779 0.0
0.0975199139805 -0.95072651026 0.0
-0.0981552596427 -0.949236823345 0.0
-0.648667569896 0.129148118328 0.0
-0.279554044891 0.0627654755135 0.0
0.273151102826 0.0171449977907 0.0
0.0298555050875 -0.90994366709 0.0
-0.212344149878 -0.737463281314 0.0
-0.229946357699 0.611891537337 0.0
0.354045803606 0.561510173556 0.0
-0.0818860901218 -0.36457251704 0.0
-0.134091639038 -0.159199321554 0.0
-0.695625031714 -0.277606106328 0.0
-0.0867851478723 -0.736672431226 0.0
0.265337120787 -0.869981074022 0.0
0.348760961551 -0.493554128188 0.0
-0.00320990135474 -0.812594716229 0.0
-0.329186847098 -0.471221989663 0.0
0.0460713866435 -0.972062035364 0.0
-0.0375937409611 -0.973405027164 0.0
0.0535682648895 -0.864336593337 0.0
0.145483624803 -0.941368692522 0.0
0.0736239261235 -0.727615112901 0.0
0.697430582005 0.0837555012036 0.0
-0.100737206717 0.233330119735 0.0
-0.556100193995 -0.633724671947 0.0
0.00232821863967 -0.980465167455 0.0
0.0749759373331 -0.577439211916 0.0
0.680855415879 -0.415051663416 0.0
0.206146806604 -0.718315341021 0.0
-0.421930988685 -0.574802042479 0.0
0.11279966401 0.192512083541 0.0
0.460339190007 -0.0980710125314 0.0
0.0312756254498 0.706087755727 0.0
-0.040272424356 -0.858092004677 0.0
0.420061865811 -0.786049287866 0.0
0.586966069727 -0.62991917776 0.0
-0.380981551573 -0.827227698018 0.0
-0.103259760795 -0.570508864702 0.0
0.492756350161 -0.313708161781 0.0
0.0874955387678 -0.404713379013 0.0
-0.407564399695 -0.320423699857 0.0
-0.628919985203 0.391318787041 0.0
-0.0699640992687 -0.968896636178 0.0
-0.125152864878 -0.868227961676 0.0
0.0682876879855 -0.909252863859 0.0
0.0266399275605 -0.939207803 0.0
0.024631671702 -0.683106747508 0.0
0.189737416738 -0.13866360915 0.0
0.585215188034 0.450819219258 0.0
0.21785306249 -0.351336809722 0.0
-0.0271807897333 -0.946087422773 0.0
0.0756038792145 -0.966069497566 0.0
-0.298382974098 -0.178452310631 0.0
0.110518716749 -0.836650464469 0.0
-0.00264273972314 -0.90600804268 0.0
-0.305474440976 -0.716515505544 0.0
-0.134098046274 -0.954681405258 0.0
-0.223207038653 -0.817004808206 0.0
-0.447544946165 0.557155518089 0.0
0.34051079299 -0.862151144016 0.0
-0.298042796814 -0.881681319918 0.0
-0.769097087 -0.0583313654367 0.0
0.235752952896 -0.800651841032 0.0
0.188159568073 -0.587366695661 0.0
-0.672181311867 -0.518770972668 0.0
0.114322329275 -0.778392343179 0.0
-0.194516208698 -0.591307758062 0.0
0.0187557175556 -0.983773357993 0.0
0.261285852013 0.368198218166 0.0
0.35743297867 -0.706299332218 0.0
-0.0373500264002 -0.698736700423 0.0
-0.0819440313114 -0.865476917287 0.0
-0.179035137098 -0.867736107652 0.0
-0.203508688916 -0.928442862871 0.0
-0.149960306607 -0.756327532646 0.0
-0.0384840194478 -0.780550639081 0.0
-0.451807703057 0.0482365390086 0.0
-0.0126098573182 -0.983928124157 0.0
0.235939510081 -0.91326563502 0.0
0.0215596456358 -0.841867333374 0.0
-0.184109888945 0.422443108965 0.0
0.374550658138 -0.601661169977 0.0
0.0128828283903 -0.160035124024 0.0
0.145394081967 -0.872900625084 0.0
-0.118308145889 -0.916653533869 0.0
0.0299899444326 -0.781967816991 0.0
0.193085013132 -0.848690188911 0.0
0.342764161569 -0.375186491603 0.0
0.139108539028 -0.721982686315 0.0
-0.520450424114 -0.742720287668 0.0
0.791510244481 -0.0614494340947 0.0
-0.0865753027393 -0.480543320587 0.0
-0.108780745819 -0.792998693675 0.0
-0.566281122187 -0.32470713474 0.0
0.186476176315 -0.941887746383 0.0
0.00180194513842 -0.95609312381 0.0
0.796826697394 -0.279168840706 0.0
0.679362570623 -0.539584903183 0.0
0.122771341382 -0.96395482973 0.0
0.247356495332 0.728704965441 0.0
-0.171736364808 -0.947995561586 0.0
0.500625473665 -0.745135744913 0.0
-0.0217695695247 -0.922438649325 0.0
-0.15066796653 -0.0133658365529 0.0
-0.0353924586132 -0.253896747296 0.0
0.281295316404 -0.720785267167 0.0
-0.454589975051 -0.800300057754 0.0
0.0865964804951 -0.48952242347 0.0
0.737591674888 0.295325894026 0.0
[...]
POINT_DATA 1757
VECTORS Displacement float
0.0 -0.06 0
-3.07352216483e-16 -0.06 0
0.0 -0.06 0
0.0 -0.06 0
-1.85443107653e-16 -0.06 0
-3.12523761484e-16 -0.06 0
-3.30186439166e-16 -0.06 0
-3.01359521938e-16 -0.06 0
-2.30894977725e-16 -0.06 0
-1.37784432436e-16 -0.06 0
-4.16501147661e-17 -0.06 0
1.01498964523e-16 -0.06 0
2.62093397672e-16 -0.06 0
4.11377624985e-16 -0.06 0
5.19473842151e-16 -0.06 0
6.34300969191e-16 -0.06 0
7.72023322743e-16 -0.06 0
9.31642379423e-16 -0.06 0
1.06348345322e-15 -0.06 0
1.18188689825e-15 -0.06 0
1.27103652558e-15 -0.06 0
1.3305839591e-15 -0.06 0
1.32594213847e-15 -0.06 0
1.32085768169e-15 -0.06 0
1.34786408239e-15 -0.06 0
1.37000547757e-15 -0.06 0
1.35160524068e-15 -0.06 0
1.31605315797e-15 -0.06 0
1.24578991031e-15 -0.06 0
1.16376649078e-15 -0.06 0
1.08414265116e-15 -0.06 0
1.02711981311e-15 -0.06 0
9.68420766994e-16 -0.06 0
8.98013093359e-16 -0.06 0
8.14067837434e-16 -0.06 0
6.98066226345e-16 -0.06 0
6.31299323401e-16 -0.06 0
5.50465126065e-16 -0.06 0
4.30779183123e-16 -0.06 0
3.31823216541e-16 -0.06 0
2.0606075772e-16 -0.06 0
7.30833382748e-17 -0.06 0
-1.53538727648e-17 -0.06 0
-1.23394578563e-16 -0.06 0
-2.41143260982e-16 -0.06 0
-2.90355434786e-16 -0.06 0
-3.22531493846e-16 -0.06 0
-3.31779648319e-16 -0.06 0
-3.30011714205e-16 -0.06 0
-3.60918873427e-16 -0.06 0
-3.46422286125e-16 -0.06 0
-3.3277029294e-16 -0.06 0
-3.03510878386e-16 -0.06 0
-3.19117729376e-16 -0.06 0
-2.73534851398e-16 -0.06 0
-2.47545423948e-16 -0.06 0
-2.55145623012e-16 -0.06 0
-3.13593262162e-16 -0.06 0
-2.94174218368e-16 -0.06 0
-3.12024507083e-16 -0.06 0
-2.93714920024e-16 -0.06 0
-2.80339823838e-16 -0.06 0
-3.20227887903e-16 -0.06 0
-3.83348593015e-16 -0.06 0
-4.6257836486e-16 -0.06 0
-5.21804418281e-16 -0.06 0
-5.64941908164e-16 -0.06 0
-6.06250542843e-16 -0.06 0
-6.61727193456e-16 -0.06 0
-7.73555714363e-16 -0.06 0
-8.50482703881e-16 -0.06 0
-9.3053971563e-16 -0.06 0
-9.5654212263e-16 -0.06 0
-1.00292356756e-15 -0.06 0
-1.03934650547e-15 -0.06 0
-1.06794884112e-15 -0.06 0
-1.08220222365e-15 -0.06 0
-1.07811511296e-15 -0.06 0
-1.05646399927e-15 -0.06 0
-1.01482032598e-15 -0.06 0
-9.69838177436e-16 -0.06 0
-8.8924882827e-16 -0.06 0
-8.50962742942e-16 -0.06 0
-8.42741192855e-16 -0.06 0
-8.88763782611e-16 -0.06 0
-9.5869430864e-16 -0.06 0
-8.75505754858e-16 -0.06 0
-7.46419076482e-16 -0.06 0
-5.90649710737e-16 -0.06 0
-4.60112784439e-16 -0.06 0
-3.43122267183e-16 -0.06 0
-2.18988323151e-16 -0.06 0
-1.52314757e-16 -0.06 0
-5.56643598235e-17 -0.06 0
4.47936346069e-17 -0.06 0
1.2714438949e-16 -0.06 0
1.99774954464e-16 -0.06 0
2.39477064057e-16 -0.06 0
3.00161095261e-16 -0.06 0
2.67525412477e-16 -0.06 0
2.10885484827e-16 -0.06 0
1.33640932518e-16 -0.06 0
0.0 -0.06 0
0.0 -0.06 0
0.0 -0.06 0
0.0 -0.06 0
0.0 -0.06 0
0.0 -0.06 0
0.0 -0.06 0
0.0 -0.06 0
0.0 -0.06 0
0.0 -0.06 0
0.0 -0.06 0
0.0 -0.06 0
0.0 -0.06 0
0.0 -0.06 0
0.0 -0.06 0
0.0 -0.06 0
0.0 -0.06 0
0.0 -0.06 0
0.0 -0.06 0
0.0 -0.06 0
0.0 -0.06 0
0.0 -0.06 0
0.0 -0.06 0
0.0 -0.06 0
0.0 -0.06 0
0.0 -0.06 0
0.0 -0.06 0
0.0 -0.06 0
0.0 -0.06 0
0.0 -0.06 0
-1.50625444459e-17 -0.06 0
1.42298145888e-16 -0.06 0
2.03151776329e-16 -0.06 0
9.37993685358e-18 -0.06 0
2.71081840471e-17 -0.06 0
6.49960363121e-17 -0.06 0
-2.13415562787e-16 -0.06 0
3.77008499966e-16 -0.06 0
2.61443645593e-16 -0.06 0
-3.24001507956e-16 -0.06 0
-2.60608462433e-16 -0.06 0
3.25300155945e-16 -0.06 0
-4.88901818661e-17 -0.06 0
1.3435368437e-16 -0.06 0
-3.30840372423e-16 -0.06 0
-1.88118284217e-16 -0.06 0
1.10386299357e-16 -0.06 0
2.13360933998e-16 -0.06 0
-1.3377887281e-16 -0.06 0
-2.58452020482e-16 -0.06 0
5.03635827422e-16 -0.06 0
2.0618157517e-17 -0.06 0
-3.58594089338e-16 -0.06 0
1.12199631538e-16 -0.06 0
1.08561919849e-16 -0.06 0
-3.38916712949e-17 -0.06 0
2.55611537483e-16 -0.06 0
2.40325215704e-16 -0.06 0
1.46700667438e-16 -0.06 0
2.04679240354e-16 -0.06 0
-2.07973103279e-16 -0.06 0
-4.63764537749e-17 -0.06 0
-1.45486022098e-16 -0.06 0
-9.00133731953e-18 -0.06 0
5.06282712022e-16 -0.06 0
-5.25400080471e-16 -0.06 0
2.73957795528e-16 -0.06 0
1.03437865399e-16 -0.06 0
1.73322285766e-16 -0.06 0
7.43089070978e-16 -0.06 0
-4.6678970086e-16 -0.06 0
3.23927135818e-16 -0.06 0
-1.89000147957e-16 -0.06 0
-1.46559224391e-16 -0.06 0
1.81422505209e-16 -0.06 0
-1.28041778692e-16 -0.06 0
2.31588269823e-16 -0.06 0
-7.26319246368e-17 -0.06 0
1.06732084149e-16 -0.06 0
5.32779531542e-17 -0.06 0
-7.61766744546e-17 -0.06 0
-3.24896573593e-16 -0.06 0
2.15268923863e-16 -0.06 0
-5.0372454501e-16 -0.06 0
2.62237312329e-16 -0.06 0
1.2167277545e-16 -0.06 0
-1.52397845897e-16 -0.06 0
-2.85724114546e-16 -0.06 0
-9.61247204464e-17 -0.06 0
-1.29386674354e-16 -0.06 0
-5.51848307406e-16 -0.06 0
8.53453289843e-17 -0.06 0
1.30073458568e-16 -0.06 0
-8.49182650748e-17 -0.06 0
1.26747196346e-16 -0.06 0
-2.16358029334e-16 -0.06 0
1.64586364537e-16 -0.06 0
2.37471226059e-16 -0.06 0
-4.19631107369e-17 -0.06 0
-4.66158297648e-17 -0.06 0
3.78741908202e-17 -0.06 0
2.23814155496e-16 -0.06 0
4.0503371255e-17 -0.06 0
2.02487419065e-16 -0.06 0
-4.63174765247e-16 -0.06 0
2.34358374595e-17 -0.06 0
7.1899656779e-16 -0.06 0
4.86304568044e-17 -0.06 0
2.80525401408e-16 -0.06 0
2.01611638309e-16 -0.06 0
-2.94289737596e-16 -0.06 0
-1.25587481519e-16 -0.06 0
1.16842387247e-16 -0.06 0
3.93790484007e-16 -0.06 0
-2.97655408686e-16 -0.06 0
-2.0632898638e-16 -0.06 0
1.38379890558e-16 -0.06 0
1.86660613578e-16 -0.06 0
1.28469469247e-16 -0.06 0
2.50703201473e-16 -0.06 0
1.84951339167e-17 -0.06 0
-4.36149375356e-16 -0.06 0
-2.14294151548e-16 -0.06 0
-2.03113720819e-16 -0.06 0
-2.21691569161e-17 -0.06 0
2.06418340491e-16 -0.06 0
4.72821970225e-16 -0.06 0
5.03920602076e-16 -0.06 0
-1.0983399307e-16 -0.06 0
-6.04450199258e-16 -0.06 0
8.23353089441e-16 -0.06 0
-1.86584842724e-16 -0.06 0
-2.42325964441e-16 -0.06 0
1.99301703476e-16 -0.06 0
-1.13983159881e-16 -0.06 0
-5.98738676736e-17 -0.06 0
1.23280799932e-18 -0.06 0
-2.63823854611e-16 -0.06 0
1.00608729104e-16 -0.06 0
-1.28077132007e-16 -0.06 0
1.82302035154e-16 -0.06 0
3.05948950941e-16 -0.06 0
5.03072096816e-16 -0.06 0
7.44626562013e-16 -0.06 0
2.79793075043e-16 -0.06 0
2.08573981995e-16 -0.06 0
-2.11528003835e-16 -0.06 0
-2.28644864086e-16 -0.06 0
-7.10465698658e-16 -0.06 0
-1.24714010251e-17 -0.06 0
-1.12838528166e-16 -0.06 0
1.5582378038e-16 -0.06 0
7.72039320865e-17 -0.06 0
-3.38275331165e-16 -0.06 0
3.95784501234e-16 -0.06 0
1.0414176446e-16 -0.06 0
-3.2952967431e-16 -0.06 0
2.81131968365e-16 -0.06 0
5.60487477755e-18 -0.06 0
4.82017486463e-16 -0.06 0
7.30042609948e-17 -0.06 0
8.17095631656e-17 -0.06 0
3.00409834934e-16 -0.06 0
-3.35720194415e-16 -0.06 0
-7.03237553783e-16 -0.06 0
-1.0568888738e-16 -0.06 0
2.20846187428e-16 -0.06 0
1.35017289238e-16 -0.06 0
-5.9225292087e-16 -0.06 0
5.2168802889e-17 -0.06 0
6.71794349226e-16 -0.06 0
-2.52640729867e-16 -0.06 0
6.12163465877e-17 -0.06 0
-1.1069271574e-16 -0.06 0
4.81735860406e-17 -0.06 0
-1.19070538567e-16 -0.06 0
6.89833384092e-16 -0.06 0
2.10774644894e-16 -0.06 0
1.05338979063e-16 -0.06 0
6.74966570541e-17 -0.06 0
2.39772835329e-16 -0.06 0
1.26491723549e-16 -0.06 0
1.35193696372e-16 -0.06 0
8.45229624149e-17 -0.06 0
2.13707473136e-16 -0.06 0
-4.28675030639e-16 -0.06 0
1.23698760515e-16 -0.06 0
-2.71719701795e-16 -0.06 0
1.39508763696e-16 -0.06 0
9.84054413706e-17 -0.06 0
-8.25377716949e-17 -0.06 0
2.4468774274e-16 -0.06 0
-5.41437766209e-17 -0.06 0
-1.01357903044e-16 -0.06 0
-2.46622247633e-16 -0.06 0
-2.73338790042e-16 -0.06 0
-9.76397300878e-17 -0.06 0
-1.70832792467e-16 -0.06 0
-3.99165182918e-17 -0.06 0
1.35819762058e-16 -0.06 0
2.73086231038e-16 -0.06 0
9.95281685975e-17 -0.06 0
1.21332197799e-16 -0.06 0
-3.57056361557e-16 -0.06 0
5.9424548709e-17 -0.06 0
3.34745948718e-16 -0.06 0
-1.6677390355e-16 -0.06 0
-2.20835171662e-16 -0.06 0
-2.46272403024e-16 -0.06 0
1.27292654025e-16 -0.06 0
6.6175717865e-18 -0.06 0
4.1971396053e-16 -0.06 0
8.90273054168e-16 -0.06 0
2.52307193719e-16 -0.06 0
-1.22432811709e-16 -0.06 0
2.32790781489e-16 -0.06 0
2.99842116558e-16 -0.06 0
2.21079663955e-16 -0.06 0
-4.9610959797e-16 -0.06 0
2.72194179044e-16 -0.06 0
-5.58070865592e-17 -0.06 0
-2.14637066562e-16 -0.06 0
-6.63901770321e-16 -0.06 0
-7.37228808339e-16 -0.06 0
-2.22026217185e-16 -0.06 0
1.29910151988e-16 -0.06 0
9.41691206904e-17 -0.06 0
1.57362066588e-16 -0.06 0
-4.4090806625e-16 -0.06 0
8.74309505654e-17 -0.06 0
-1.14223271645e-16 -0.06 0
8.31708160693e-19 -0.06 0
-2.88419366935e-16 -0.06 0
1.21209288448e-16 -0.06 0
6.34499085094e-16 -0.06 0
-4.68860128319e-17 -0.06 0
7.19182558433e-17 -0.06 0
-3.61824467843e-16 -0.06 0
-1.96943897236e-16 -0.06 0
2.78602200001e-16 -0.06 0
-2.7774840771e-16 -0.06 0
-2.29438730871e-16 -0.06 0
1.427141155e-16 -0.06 0
9.5998774382e-17 -0.06 0
-1.11997979373e-16 -0.06 0
2.47791412082e-17 -0.06 0
3.78000580823e-16 -0.06 0
-9.84726836801e-17 -0.06 0
1.21128114272e-16 -0.06 0
2.22188251566e-16 -0.06 0
9.81082948369e-16 -0.06 0
9.65524339144e-16 -0.06 0
-8.96272635853e-17 -0.06 0
-1.34048213052e-16 -0.06 0
1.60999325075e-16 -0.06 0
-2.73871906809e-16 -0.06 0
2.03439071951e-16 -0.06 0
-2.73544466827e-16 -0.06 0
2.61056403951e-16 -0.06 0
3.99942772694e-16 -0.06 0
1.98544230719e-16 -0.06 0
3.55517795108e-16 -0.06 0
-1.79282387718e-16 -0.06 0
-2.7329163666e-16 -0.06 0
-6.14680531674e-17 -0.06 0
1.58018500392e-16 -0.06 0
3.77571845359e-16 -0.06 0
-4.83034377932e-16 -0.06 0
-8.40827740652e-17 -0.06 0
1.59388849078e-16 -0.06 0
-2.22722304289e-16 -0.06 0
-4.65180265784e-17 -0.06 0
-1.38769430737e-18 -0.06 0
-7.45653556263e-17 -0.06 0
3.35640345825e-17 -0.06 0
-1.48656284214e-16 -0.06 0
-1.6604595287e-16 -0.06 0
-2.42510811431e-16 -0.06 0
1.85808108877e-16 -0.06 0
2.05998114371e-16 -0.06 0
-1.49983880911e-16 -0.06 0
1.4445921527e-16 -0.06 0
5.33075379584e-17 -0.06 0
-7.13870102067e-16 -0.06 0
1.20266703841e-16 -0.06 0
-2.24583984685e-16 -0.06 0
3.10716129674e-16 -0.06 0
-5.73523967137e-17 -0.06 0
1.19851094826e-16 -0.06 0
8.58769257012e-17 -0.06 0
2.25536818897e-16 -0.06 0
2.07772916761e-16 -0.06 0
6.10682384916e-16 -0.06 0
-1.49874457183e-16 -0.06 0
-3.27966987692e-16 -0.06 0
-4.55493024457e-17 -0.06 0
-1.86541944071e-16 -0.06 0
-3.70727769897e-16 -0.06 0
-3.66534529323e-16 -0.06 0
-1.27085674059e-16 -0.06 0
1.8395364693e-16 -0.06 0
-3.16605952148e-16 -0.06 0
8.7577740104e-17 -0.06 0
-2.8214010348e-16 -0.06 0
3.71173371863e-16 -0.06 0
2.57610797613e-16 -0.06 0
-7.75865857308e-16 -0.06 0
-3.60253146469e-16 -0.06 0
1.47395680098e-16 -0.06 0
-1.76998372183e-16 -0.06 0
1.53831852196e-16 -0.06 0
1.83035009574e-16 -0.06 0
-5.83316442737e-17 -0.06 0
-1.7174523143e-16 -0.06 0
-2.56827577923e-16 -0.06 0
-1.87929964728e-17 -0.06 0
2.02488626602e-16 -0.06 0
4.9071832884e-16 -0.06 0
4.21867104212e-17 -0.06 0
-5.61455408599e-16 -0.06 0
-1.63812909384e-16 -0.06 0
-3.73373028722e-16 -0.06 0
5.63297186217e-17 -0.06 0
6.76439208391e-16 -0.06 0
5.84415501521e-16 -0.06 0
1.46120431113e-16 -0.06 0
-4.87241719038e-16 -0.06 0
-2.73771569599e-16 -0.06 0
2.38434390242e-16 -0.06 0
-1.12200581602e-16 -0.06 0
4.35382415064e-17 -0.06 0
-8.24667433288e-16 -0.06 0
-1.41871352598e-16 -0.06 0
1.25433068343e-16 -0.06 0
4.38817796096e-16 -0.06 0
2.05133383156e-16 -0.06 0
8.31823702388e-17 -0.06 0
-1.46158591583e-16 -0.06 0
1.63798322561e-16 -0.06 0
1.02772339198e-16 -0.06 0
9.4816759938e-16 -0.06 0
9.97899093655e-18 -0.06 0
2.45856916325e-16 -0.06 0
-2.57128520322e-16 -0.06 0
-2.13550509769e-16 -0.06 0
-9.89663521411e-17 -0.06 0
2.31714743687e-16 -0.06 0
-2.55489779595e-17 -0.06 0
1.11974714811e-16 -0.06 0
-1.69762057317e-16 -0.06 0
7.27374537839e-17 -0.06 0
1.94398970847e-16 -0.06 0
2.23124742984e-16 -0.06 0
-4.40926266506e-16 -0.06 0
-3.17640805875e-16 -0.06 0
-2.65009916199e-16 -0.06 0
-5.61016228034e-17 -0.06 0
4.24379584685e-17 -0.06 0
-1.61620195646e-16 -0.06 0
4.39082782378e-16 -0.06 0
1.29201937668e-16 -0.06 0
6.31122528074e-17 -0.06 0
2.44143747423e-16 -0.06 0
1.44539571267e-16 -0.06 0
1.81945947784e-16 -0.06 0
-8.1338898721e-19 -0.06 0
-1.36029223481e-16 -0.06 0
1.32749858735e-16 -0.06 0
-4.81567740391e-17 -0.06 0
-2.42402967907e-16 -0.06 0
7.9406652902e-16 -0.06 0
1.52999914921e-16 -0.06 0
-2.57521368162e-16 -0.06 0
2.03193905517e-16 -0.06 0
-1.33726169345e-16 -0.06 0
-5.07805151496e-16 -0.06 0
-3.89900177245e-16 -0.06 0
-3.03855254529e-16 -0.06 0
6.36930088347e-16 -0.06 0
3.80940245715e-16 -0.06 0
2.5476410183e-16 -0.06 0
7.8576787338e-18 -0.06 0
2.40929880729e-16 -0.06 0
-1.83765616779e-16 -0.06 0
-2.58950728856e-16 -0.06 0
2.09940083119e-17 -0.06 0
1.0653321236e-15 -0.06 0
6.1742438274e-17 -0.06 0
7.66487415574e-17 -0.06 0
-3.21702323384e-17 -0.06 0
2.01807782125e-17 -0.06 0
-6.88471776529e-16 -0.06 0
2.75466323979e-17 -0.06 0
-2.47865393643e-16 -0.06 0
1.59874146589e-17 -0.06 0
-2.22011295235e-17 -0.06 0
2.38028314309e-16 -0.06 0
3.48232152199e-16 -0.06 0
1.38980376889e-16 -0.06 0
2.46102554412e-16 -0.06 0
-7.46444416023e-16 -0.06 0
4.54694976102e-16 -0.06 0
7.79515769906e-16 -0.06 0
-1.10347674642e-16 -0.06 0
-2.0002808996e-16 -0.06 0
-3.06443977102e-16 -0.06 0
-5.46124272235e-16 -0.06 0
-3.76830108313e-16 -0.06 0
7.89631888819e-16 -0.06 0
5.37982354064e-17 -0.06 0
-1.12764863027e-16 -0.06 0
-2.90007097954e-17 -0.06 0
-6.66351667641e-17 -0.06 0
6.7419265826e-17 -0.06 0
1.91488257934e-17 -0.06 0
-1.13469759578e-16 -0.06 0
1.32751419222e-16 -0.06 0
5.43923569765e-17 -0.06 0
-8.76727328622e-16 -0.06 0
4.28083527935e-16 -0.06 0
6.99396138252e-17 -0.06 0
-6.55245241996e-16 -0.06 0
3.35432423509e-16 -0.06 0
2.14238462969e-16 -0.06 0
2.33751575984e-16 -0.06 0
1.60215953242e-16 -0.06 0
-1.93639254377e-16 -0.06 0
1.19229914923e-16 -0.06 0
8.64186939603e-16 -0.06 0
2.50200009594e-16 -0.06 0
-1.16878184713e-18 -0.06 0
-2.19511619739e-16 -0.06 0
-1.2719074701e-16 -0.06 0
1.56259375521e-16 -0.06 0
1.01239380187e-16 -0.06 0
-2.16688757432e-16 -0.06 0
-1.39161140713e-16 -0.06 0
-2.3957854857e-16 -0.06 0
-7.52187288466e-16 -0.06 0
1.07110842029e-16 -0.06 0
4.84687855986e-16 -0.06 0
-7.18370383747e-17 -0.06 0
-5.31038472325e-16 -0.06 0
2.51098621309e-16 -0.06 0
6.29853845293e-16 -0.06 0
6.18641938049e-17 -0.06 0
5.11818859587e-17 -0.06 0
5.13667434739e-16 -0.06 0
2.21503815231e-17 -0.06 0
1.41429910238e-16 -0.06 0
-1.73751156465e-16 -0.06 0
-3.71400184787e-16 -0.06 0
1.18452279887e-16 -0.06 0
2.14864280919e-16 -0.06 0
2.74835111204e-16 -0.06 0
-1.33016525534e-16 -0.06 0
3.22624613335e-16 -0.06 0
-1.00488142994e-16 -0.06 0
-2.71880511325e-16 -0.06 0
1.79375648436e-16 -0.06 0
-2.4134907909e-16 -0.06 0
3.38940635395e-17 -0.06 0
-2.65367169609e-16 -0.06 0
1.41385766476e-16 -0.06 0
3.36258319774e-17 -0.06 0
1.41793428364e-16 -0.06 0
5.41896825143e-17 -0.06 0
9.39997512818e-17 -0.06 0
-4.43920853669e-17 -0.06 0
1.60384572855e-16 -0.06 0
2.30671419708e-16 -0.06 0
1.25138605155e-16 -0.06 0
-7.39895490633e-16 -0.06 0
-9.07886176335e-17 -0.06 0
3.07790179912e-16 -0.06 0
3.08876514546e-16 -0.06 0
-2.21922909268e-16 -0.06 0
9.76098019433e-17 -0.06 0
-2.71143274841e-16 -0.06 0
-2.28088966268e-16 -0.06 0
3.41930963327e-17 -0.06 0
-2.06609827663e-16 -0.06 0
-4.31213922173e-18 -0.06 0
2.71089570504e-16 -0.06 0
1.09391230932e-16 -0.06 0
1.14910318071e-16 -0.06 0
1.37911258471e-17 -0.06 0
-5.31764662577e-17 -0.06 0
-2.76823698105e-16 -0.06 0
6.39476527561e-17 -0.06 0
2.81567821808e-16 -0.06 0
1.90011868528e-16 -0.06 0
-4.26717156896e-16 -0.06 0
-1.36698655711e-16 -0.06 0
-2.26330322453e-16 -0.06 0
-1.7352881263e-16 -0.06 0
2.02627546073e-16 -0.06 0
-4.24055873475e-17 -0.06 0
-4.49270502088e-16 -0.06 0
1.30812521279e-17 -0.06 0
2.9730869279e-16 -0.06 0
-1.56078977134e-16 -0.06 0
1.07219337619e-15 -0.06 0
4.46774678085e-16 -0.06 0
-2.90132595171e-16 -0.06 0
-1.57075994942e-16 -0.06 0
5.33901204644e-16 -0.06 0
-5.44788779828e-17 -0.06 0
2.14914084954e-16 -0.06 0
-7.45832358702e-17 -0.06 0
-1.8565222667e-16 -0.06 0
2.34373655118e-16 -0.06 0
3.72408560348e-16 -0.06 0
1.51476220695e-16 -0.06 0
2.86273125848e-16 -0.06 0
1.91996754381e-16 -0.06 0
-5.79905844421e-16 -0.06 0
5.64950686298e-17 -0.06 0
-9.13429970001e-17 -0.06 0
-2.30753838776e-16 -0.06 0
1.28521702101e-16 -0.06 0
1.91007533234e-16 -0.06 0
9.4152147938e-17 -0.06 0
-2.27131329543e-16 -0.06 0
-3.13091879854e-16 -0.06 0
9.70928426453e-17 -0.06 0
7.20609558124e-16 -0.06 0
-3.20010177629e-16 -0.06 0
-8.18907523226e-16 -0.06 0
1.6925152562e-16 -0.06 0
-1.00266383568e-16 -0.06 0
1.90974544815e-16 -0.06 0
5.60368209003e-16 -0.06 0
2.11778818573e-16 -0.06 0
-8.34791366818e-17 -0.06 0
1.55100833726e-16 -0.06 0
2.98931999867e-16 -0.06 0
2.92526401961e-16 -0.06 0
2.12091610265e-16 -0.06 0
1.15863954759e-16 -0.06 0
-7.42753572506e-17 -0.06 0
-6.75718538319e-16 -0.06 0
1.38173559028e-16 -0.06 0
1.56716620548e-16 -0.06 0
2.02778758681e-16 -0.06 0
2.7217841266e-16 -0.06 0
2.57852729187e-16 -0.06 0
-2.23267217078e-16 -0.06 0
3.74536236946e-16 -0.06 0
-3.30743290945e-16 -0.06 0
7.14842094558e-17 -0.06 0
-7.04542765169e-17 -0.06 0
3.12230044946e-16 -0.06 0
2.08221588546e-16 -0.06 0
1.30700489512e-16 -0.06 0
1.03809956119e-15 -0.06 0
2.58387521333e-16 -0.06 0
9.29996632654e-16 -0.06 0
-2.6240905714e-17 -0.06 0
5.77350048634e-17 -0.06 0
5.64064834253e-16 -0.06 0
-1.03323913342e-16 -0.06 0
3.45398090676e-16 -0.06 0
3.03932419068e-17 -0.06 0
-1.38763791711e-16 -0.06 0
6.69500947103e-16 -0.06 0
-1.6700339098e-16 -0.06 0
-3.29524402216e-16 -0.06 0
-2.992948616e-16 -0.06 0
-2.37645372439e-16 -0.06 0
5.42970936569e-16 -0.06 0
1.28459172542e-16 -0.06 0
-2.86540597472e-16 -0.06 0
-7.67704337422e-17 -0.06 0
-1.99706070657e-16 -0.06 0
4.31343925894e-17 -0.06 0
1.29007357135e-17 -0.06 0
-7.42877376137e-18 -0.06 0
5.33224266145e-17 -0.06 0
5.09632295382e-16 -0.06 0
-2.26490835099e-16 -0.06 0
5.83704092033e-17 -0.06 0
4.54301183912e-17 -0.06 0
9.70295643857e-17 -0.06 0
-9.30585004059e-17 -0.06 0
-5.32449235741e-16 -0.06 0
6.68813408392e-17 -0.06 0
-6.52151509571e-17 -0.06 0
-5.67343130276e-17 -0.06 0
2.60203405435e-16 -0.06 0
3.86934317455e-16 -0.06 0
1.40877486826e-16 -0.06 0
2.01326268889e-16 -0.06 0
-1.29856049352e-16 -0.06 0
1.29398908086e-16 -0.06 0
1.05182059425e-16 -0.06 0
-4.73274031519e-16 -0.06 0
-8.62485512984e-17 -0.06 0
2.05491712229e-16 -0.06 0
1.42577130433e-16 -0.06 0
7.15098124324e-16 -0.06 0
4.76114065185e-17 -0.06 0
1.57293733628e-16 -0.06 0
-2.12224544985e-16 -0.06 0
1.49238319432e-16 -0.06 0
1.67906656864e-16 -0.06 0
-4.80485578598e-16 -0.06 0
-4.64914382874e-16 -0.06 0
-1.92696210688e-16 -0.06 0
3.35256913864e-16 -0.06 0
2.57353059172e-16 -0.06 0
3.43803736295e-17 -0.06 0
-5.09959310454e-17 -0.06 0
1.3833553091e-16 -0.06 0
2.65594395899e-16 -0.06 0
7.22120101653e-16 -0.06 0
1.50225009881e-16 -0.06 0
1.22584250163e-16 -0.06 0
3.53272394757e-16 -0.06 0
2.89870147148e-16 -0.06 0
-3.99185519077e-16 -0.06 0
-5.2535372749e-16 -0.06 0
1.69412607593e-16 -0.06 0
3.42390970157e-16 -0.06 0
-1.34852592029e-16 -0.06 0
-4.651159806e-17 -0.06 0
-1.3732886851e-16 -0.06 0
1.29171166505e-16 -0.06 0
-1.16473780828e-16 -0.06 0
6.34784454655e-17 -0.06 0
-6.60858649666e-16 -0.06 0
7.47780154998e-17 -0.06 0
1.24831624167e-16 -0.06 0
4.70480036073e-17 -0.06 0
4.04928261171e-16 -0.06 0
-3.47902844563e-16 -0.06 0
-1.24850199609e-16 -0.06 0
-1.10184607004e-16 -0.06 0
1.49216729024e-16 -0.06 0
-1.01201360049e-16 -0.06 0
-3.55211716569e-16 -0.06 0
2.20499422355e-16 -0.06 0
1.17225108689e-16 -0.06 0
1.9021549964e-16 -0.06 0
-2.17473128788e-16 -0.06 0
2.08448005642e-16 -0.06 0
7.28217656622e-18 -0.06 0
2.16397698948e-18 -0.06 0
-1.30747239172e-16 -0.06 0
1.9027184078e-16 -0.06 0
-4.98002908254e-17 -0.06 0
-3.04291487723e-17 -0.06 0
-6.45829795393e-17 -0.06 0
-2.54965152016e-16 -0.06 0
8.33918398475e-16 -0.06 0
1.1377106794e-15 -0.06 0
7.39786574564e-17 -0.06 0
-6.59942846085e-17 -0.06 0
-3.90074467089e-17 -0.06 0
-1.61248838259e-16 -0.06 0
7.90335511969e-17 -0.06 0
2.89483103769e-16 -0.06 0
-2.68724524807e-16 -0.06 0
1.71493629305e-16 -0.06 0
2.26842942918e-16 -0.06 0
1.4504762483e-16 -0.06 0
3.32564531517e-17 -0.06 0
-2.59346287274e-16 -0.06 0
1.3059307575e-16 -0.06 0
1.11908610101e-16 -0.06 0
2.38943743348e-16 -0.06 0
4.10224790778e-16 -0.06 0
7.3090569182e-17 -0.06 0