# vtk DataFile Version 2.0
Generated with Solid Solver
ASCII
DATASET UNSTRUCTURED_GRID
POINTS 1757 float 
1.0 0.0 0.0
0.0 -1.0 0.0
-1.0 0.0 0.0
0.0 1.0 0.0
-0.995380413423 -0.0960095441785 0.0
-0.98261780075 -0.185640129414 0.0
-0.96322958769 -0.268679663165 0.0
-0.938560776953 -0.345113992712 0.0
-0.90978672778 -0.415076029126 0.0
-0.877921711568 -0.478804206705 0.0
-0.843830985157 -0.536609046223 0.0
-0.808244689242 -0.588846773203 0.0
-0.771772366024 -0.635898903162 0.0
-0.73491739518 -0.678156635492 0.0
-0.698090641905 -0.716009396366 0.0
-0.661623210588 -0.749836466979 0.0
-0.6257779638 -0.780001243603 0.0
-0.590759898542 -0.806847409536 0.0
-0.55672527119 -0.83069667895 0.0
-0.523789567821 -0.851847690988 0.0
-0.4920344724 -0.870575716391 0.0
-0.461513788672 -0.887133035607 0.0
-0.432258543883 -0.901749716518 0.0
-0.404281323176 -0.914634687584 0.0
-0.377579883859 -0.925977014458 0.0
-0.352140279087 -0.935947233472 0.0
-0.327939363362 -0.944698774191 0.0
-0.304946964352 -0.952369334309 0.0
-0.283127619241 -0.959082244243 0.0
-0.262442049932 -0.964947755284 0.0
-0.24284833385 -0.970064269389 0.0
-0.224302876543 -0.974519481373 0.0
-0.206761193898 -0.978391439403 0.0
-0.190178533755 -0.981749522688 0.0
-0.174510373217 -0.984655335455 0.0
-0.159712796062 -0.987163523827 0.0
-0.145742818731 -0.989322511009 0.0
-0.132558585798 -0.99117517187 0.0
-0.120119553476 -0.992759433535 0.0
-0.108386608834 -0.994108818503 0.0
-0.0973221399841 -0.995252933213 0.0
-0.0868900892702 -0.996217904068 0.0
-0.0770559742282 -0.997026768365 0.0
-0.0677868864448 -0.997699823607 0.0
-0.0590514752917 -0.998254939014 0.0
-0.0508199228057 -0.998707832875 0.0
-0.0430639085463 -0.999072319595 0.0
-0.0357565614578 -0.999360529695 0.0
-0.0288724199598 -0.999583104782 0.0
-0.0223873675603 -0.99974937148 0.0
-0.0162785878776 -0.99986749501 0.0
-0.0105245046693 -0.999944615867 0.0
-0.00510472847989 -0.999986970789 0.0
0.00510472847988 -0.999986970789 0.0
0.0105245046693 -0.999944615867 0.0
0.0162785878776 -0.99986749501 0.0
0.0223873675602 -0.99974937148 0.0
0.0288724199598 -0.999583104782 0.0
0.0357565614578 -0.999360529695 0.0
0.0430639085462 -0.999072319595 0.0
0.0508199228056 -0.998707832875 0.0
0.0590514752916 -0.998254939014 0.0
0.0677868864446 -0.997699823607 0.0
0.077055974228 -0.997026768365 0.0
0.08689008927 -0.996217904069 0.0
0.0973221399839 -0.995252933213 0.0
0.108386608834 -0.994108818503 0.0
0.120119553476 -0.992759433535 0.0
0.132558585798 -0.99117517187 0.0
0.145742818731 -0.989322511009 0.0
0.159712796061 -0.987163523827 0.0
0.174510373217 -0.984655335455 0.0
0.190178533754 -0.981749522689 0.0
0.206761193898 -0.978391439403 0.0
0.224302876542 -0.974519481373 0.0
0.24284833385 -0.97006426939 0.0
0.262442049931 -0.964947755284 0.0
0.28312761924 -0.959082244244 0.0
0.304946964351 -0.95236933431 0.0
0.32793936336 -0.944698774191 0.0
0.352140279085 -0.935947233473 0.0
0.377579883857 -0.925977014459 0.0
0.404281323174 -0.914634687584 0.0
0.432258543881 -0.901749716519 0.0
0.46151378867 -0.887133035608 0.0
0.492034472398 -0.870575716392 0.0
0.523789567819 -0.851847690989 0.0
0.556725271188 -0.830696678951 0.0
0.590759898539 -0.806847409538 0.0
0.625777963797 -0.780001243606 0.0
0.661623210585 -0.749836466982 0.0
0.698090641902 -0.716009396369 0.0
0.734917395177 -0.678156635496 0.0
0.771772366021 -0.635898903165 0.0
0.80824468924 -0.588846773206 0.0
0.843830985155 -0.536609046227 0.0
0.877921711566 -0.478804206707 0.0
0.909786727779 -0.415076029129 0.0
0.938560776952 -0.345113992715 0.0
0.96322958769 -0.268679663167 0.0
0.98261780075 -0.185640129415 0.0
0.995380413423 -0.0960095441792 0.0
0.995184726672 0.0980171403292 0.0
0.980785280403 0.195090322016 0.0
0.956940335732 0.290284677254 0.0
0.923879532512 0.382683432364 0.0
0.881921264349 0.471396736825 0.0
0.831469612303 0.555570233018 0.0
0.773010453364 0.634393284162 0.0
0.707106781188 0.707106781185 0.0
0.634393284165 0.773010453362 0.0
0.555570233021 0.831469612302 0.0
0.471396736827 0.881921264348 0.0
0.382683432366 0.923879532511 0.0
0.290284677255 0.956940335732 0.0
0.195090322016 0.980785280403 0.0
0.0980171403296 0.995184726672 0.0
-0.0980171403292 0.995184726672 0.0
-0.195090322016 0.980785280403 0.0
-0.290284677254 0.956940335732 0.0
-0.382683432364 0.923879532512 0.0
-0.471396736825 0.881921264349 0.0
-0.555570233018 0.831469612303 0.0
-0.634393284162 0.773010453364 0.0
-0.707106781185 0.707106781188 0.0
-0.773010453362 0.634393284165 0.0
-0.831469612302 0.555570233021 0.0
-0.881921264348 0.471396736827 0.0
-0.923879532511 0.382683432366 0.0
-0.956940335732 0.290284677255 0.0
-0.980785280403 0.195090322016 0.0
-0.995184726672 0.0980171403296 0.0
-4.96996675457e-15 -1.93548667772e-12 0.0
0.00127619043384 -0.500000000001 0.0
-0.00722089405625 -0.748268261399 0.0
0.00228876066458 -0.875556181739 0.0
-0.281695474279 -0.627991907605 0.0
0.276565504347 -0.648709845297 0.0
0.165521166582 -0.808905078842 0.0
-0.152585357215 -0.822741196601 0.0
0.315604058399 -0.24609675106 0.0
0.102417520922 -0.891264985708 0.0
-0.475635334484 -0.159294667465 0.0
-0.0835204948431 -0.904755269877 0.0
-0.00325062230283 -0.936932840139 0.0
0.443692867126 0.230749263633 0.0
0.0519377913903 -0.943993046933 0.0
-0.376036192266 0.329953197425 0.0
-0.0521516255689 -0.947879580655 0.0
0.515606575531 -0.501630943311 0.0
-0.240308280436 -0.343851039704 0.0
-0.533518994474 -0.465307197087 0.0
-0.287804041658 -0.805642358412 0.0
0.0445238380782 0.430295701266 0.0
0.311896404579 -0.800379386155 0.0
-0.13107597474 -0.667419094267 0.0
0.123108305654 -0.661752158477 0.0
0.0628248294012 -0.806365098603 0.0
0.187292166309 -0.484108441138 0.0
-0.0641832406134 -0.819165573216 0.0
0.0798579288498 -0.275607470425 0.0
0.638459931996 -0.202013346611 0.0
0.0186626287027 -0.965141212843 0.0
0.45526094991 -0.681833875225 0.0
-0.0129772315159 -0.968247403008 0.0
-0.171540104927 -0.497908016167 0.0
-0.155127552345 -0.915207147269 0.0
0.183001231559 -0.901567275323 0.0
-0.426144747324 -0.715098931219 0.0
-0.0162892183335 -0.624792928552 0.0
-0.035730323476 -0.903037334438 0.0
-0.232827639067 -0.88874456779 0.0
0.0975199139805 -0.95072651026 0.0
-0.0981552596427 -0.949236823345 0.0
-0.648667569896 0.129148118328 0.0
-0.279554044891 0.0627654755135 0.0
0.273151102826 0.0171449977907 0.0
0.0298555050875 -0.90994366709 0.0
-0.212344149878 -0.737463281314 0.0
-0.229946357699 0.611891537337 0.0
0.354045803606 0.561510173556 0.0
-0.0818860901218 -0.36457251704 0.0
-0.134091639038 -0.159199321554 0.0
-0.695625031714 -0.277606106328 0.0
-0.0867851478723 -0.736672431226 0.0
0.265337120787 -0.869981074022 0.0
0.348760961551 -0.493554128188 0.0
-0.00320990135474 -0.812594716229 0.0
-0.329186847098 -0.471221989663 0.0
0.0460713866435 -0.972062035364 0.0
-0.0375937409611 -0.973405027164 0.0
0.0535682648895 -0.864336593337 0.0
0.145483624803 -0.941368692522 0.0
0.0736239261235 -0.727615112901 0.0
0.697430582005 0.0837555012036 0.0
-0.100737206717 0.233330119735 0.0
-0.556100193995 -0.633724671947 0.0
0.00232821863967 -0.980465167455 0.0
0.0749759373331 -0.577439211916 0.0
0.680855415879 -0.415051663416 0.0
0.206146806604 -0.718315341021 0.0
-0.421930988685 -0.574802042479 0.0
0.11279966401 0.192512083541 0.0
0.460339190007 -0.0980710125314 0.0
0.0312756254498 0.706087755727 0.0
-0.040272424356 -0.858092004677 0.0
0.420061865811 -0.786049287866 0.0
0.586966069727 -0.62991917776 0.0
-0.380981551573 -0.827227698018 0.0
-0.103259760795 -0.570508864702 0.0
0.492756350161 -0.313708161781 0.0
0.0874955387678 -0.404713379013 0.0
-0.407564399695 -0.320423699857 0.0
-0.628919985203 0.391318787041 0.0
-0.0699640992687 -0.968896636178 0.0
-0.125152864878 -0.868227961676 0.0
0.0682876879855 -0.909252863859 0.0
0.0266399275605 -0.939207803 0.0
0.024631671702 -0.683106747508 0.0
0.189737416738 -0.13866360915 0.0
0.585215188034 0.450819219258 0.0
0.21785306249 -0.351336809722 0.0
-0.0271807897333 -0.946087422773 0.0
0.0756038792145 -0.966069497566 0.0
-0.298382974098 -0.178452310631 0.0
0.110518716749 -0.836650464469 0.0
-0.00264273972314 -0.90600804268 0.0
-0.305474440976 -0.716515505544 0.0
-0.134098046274 -0.954681405258 0.0
-0.223207038653 -0.817004808206 0.0
-0.447544946165 0.557155518089 0.0
0.34051079299 -0.862151144016 0.0
-0.298042796814 -0.881681319918 0.0
-0.769097087 -0.0583313654367 0.0
0.235752952896 -0.800651841032 0.0
0.188159568073 -0.587366695661 0.0
-0.672181311867 -0.518770972668 0.0
0.114322329275 -0.778392343179 0.0
-0.194516208698 -0.591307758062 0.0
0.0187557175556 -0.983773357993 0.0
0.261285852013 0.368198218166 0.0
0.35743297867 -0.706299332218 0.0
-0.0373500264002 -0.698736700423 0.0
-0.0819440313114 -0.865476917287 0.0
-0.179035137098 -0.867736107652 0.0
-0.203508688916 -0.928442862871 0.0
-0.149960306607 -0.756327532646 0.0
-0.0384840194478 -0.780550639081 0.0
-0.451807703057 0.0482365390086 0.0
-0.0126098573182 -0.983928124157 0.0
0.235939510081 -0.91326563502 0.0
0.0215596456358 -0.841867333374 0.0
-0.184109888945 0.422443108965 0.0
0.374550658138 -0.601661169977 0.0
0.0128828283903 -0.160035124024 0.0
0.145394081967 -0.872900625084 0.0
-0.118308145889 -0.916653533869 0.0
0.0299899444326 -0.781967816991 0.0
0.193085013132 -0.848690188911 0.0
0.342764161569 -0.375186491603 0.0
0.139108539028 -0.721982686315 0.0
-0.520450424114 -0.742720287668 0.0
0.791510244481 -0.0614494340947 0.0
-0.0865753027393 -0.480543320587 0.0
-0.108780745819 -0.792998693675 0.0
-0.566281122187 -0.32470713474 0.0
0.186476176315 -0.941887746383 0.0
0.00180194513842 -0.95609312381 0.0
0.796826697394 -0.279168840706 0.0
0.679362570623 -0.539584903183 0.0
0.122771341382 -0.96395482973 0.0
0.247356495332 0.728704965441 0.0
-0.171736364808 -0.947995561586 0.0
0.500625473665 -0.745135744913 0.0
-0.0217695695247 -0.922438649325 0.0
-0.15066796653 -0.0133658365529 0.0
-0.0353924586132 -0.253896747296 0.0
0.281295316404 -0.720785267167 0.0
-0.454589975051 -0.800300057754 0.0
0.0865964804951 -0.48952242347 0.0
0.737591674888 0.295325894026 0.0
[...]
POINT_DATA 1757
VECTORS Displacement float
0.0 -0.09 0
-4.55145985652e-16 -0.09 0
0.0 -0.09 0
0.0 -0.09 0
-3.09715745767e-16 -0.09 0
-4.85804262901e-16 -0.09 0
-5.34986966868e-16 -0.09 0
-4.81865353845e-16 -0.09 0
-3.78312540427e-16 -0.09 0
-1.9479868034e-16 -0.09 0
-4.88311690361e-17 -0.09 0
1.49104673547e-16 -0.09 0
3.82065727593e-16 -0.09 0
6.0323861815e-16 -0.09 0
7.8489843303e-16 -0.09 0
9.5233488132e-16 -0.09 0
1.14373825592e-15 -0.09 0
1.37006232268e-15 -0.09 0
1.5578243856e-15 -0.09 0
1.74713715393e-15 -0.09 0
1.89485813322e-15 -0.09 0
1.99274269543e-15 -0.09 0
1.99924235913e-15 -0.09 0
1.99001465699e-15 -0.09 0
2.01134019628e-15 -0.09 0
2.02861202744e-15 -0.09 0
1.96242683983e-15 -0.09 0
1.89909221716e-15 -0.09 0
1.82061895553e-15 -0.09 0
1.71907087002e-15 -0.09 0
1.61424975393e-15 -0.09 0
1.51478183665e-15 -0.09 0
1.43726303316e-15 -0.09 0
1.31453452814e-15 -0.09 0
1.21266811989e-15 -0.09 0
1.03977696651e-15 -0.09 0
9.36497009549e-16 -0.09 0
8.24870170868e-16 -0.09 0
6.55513958219e-16 -0.09 0
4.89129035722e-16 -0.09 0
2.9139117088e-16 -0.09 0
1.05464715857e-16 -0.09 0
-3.20624990089e-17 -0.09 0
-1.82872540891e-16 -0.09 0
-3.54816258472e-16 -0.09 0
-4.71346223048e-16 -0.09 0
-5.1512224197e-16 -0.09 0
-5.32616928768e-16 -0.09 0
-5.20421350747e-16 -0.09 0
-5.33498964929e-16 -0.09 0
-5.19633429188e-16 -0.09 0
-4.89918484631e-16 -0.09 0
-4.21123846874e-16 -0.09 0
-4.50863580953e-16 -0.09 0
-4.48255799171e-16 -0.09 0
-3.97940945667e-16 -0.09 0
-3.88389722182e-16 -0.09 0
-4.65778227623e-16 -0.09 0
-4.38842854905e-16 -0.09 0
-4.43951083002e-16 -0.09 0
-4.40572380035e-16 -0.09 0
-4.47303668367e-16 -0.09 0
-5.01080897352e-16 -0.09 0
-5.85033903734e-16 -0.09 0
-7.33404159671e-16 -0.09 0
-8.02106032957e-16 -0.09 0
-8.6881036575e-16 -0.09 0
-9.21500825121e-16 -0.09 0
-1.03753207603e-15 -0.09 0
-1.19469123665e-15 -0.09 0
-1.28185852426e-15 -0.09 0
-1.41676767515e-15 -0.09 0
-1.47619792342e-15 -0.09 0
-1.55852043027e-15 -0.09 0
-1.58480942776e-15 -0.09 0
-1.62295395452e-15 -0.09 0
-1.63071567947e-15 -0.09 0
-1.59858447783e-15 -0.09 0
-1.55567226265e-15 -0.09 0
-1.51379920228e-15 -0.09 0
-1.46410608345e-15 -0.09 0
-1.36443500923e-15 -0.09 0
-1.3023429805e-15 -0.09 0
-1.27419242556e-15 -0.09 0
-1.33794461443e-15 -0.09 0
-1.43716514275e-15 -0.09 0
-1.34192563488e-15 -0.09 0
-1.1551266942e-15 -0.09 0
-8.96975205418e-16 -0.09 0
-6.80233186296e-16 -0.09 0
-5.12733842438e-16 -0.09 0
-3.53636548872e-16 -0.09 0
-2.3489504694e-16 -0.09 0
-6.95804497794e-17 -0.09 0
9.82014297152e-17 -0.09 0
2.23277952276e-16 -0.09 0
3.03307960062e-16 -0.09 0
3.64475281946e-16 -0.09 0
4.58866961722e-16 -0.09 0
4.18220106847e-16 -0.09 0
3.31028506303e-16 -0.09 0
1.95858323508e-16 -0.09 0
0.0 -0.09 0
0.0 -0.09 0
0.0 -0.09 0
0.0 -0.09 0
0.0 -0.09 0
0.0 -0.09 0
0.0 -0.09 0
0.0 -0.09 0
0.0 -0.09 0
0.0 -0.09 0
0.0 -0.09 0
0.0 -0.09 0
0.0 -0.09 0
0.0 -0.09 0
0.0 -0.09 0
0.0 -0.09 0
0.0 -0.09 0
0.0 -0.09 0
0.0 -0.09 0
0.0 -0.09 0
0.0 -0.09 0
0.0 -0.09 0
0.0 -0.09 0
0.0 -0.09 0
0.0 -0.09 0
0.0 -0.09 0
0.0 -0.09 0
0.0 -0.09 0
0.0 -0.09 0
0.0 -0.09 0
-3.09618969166e-17 -0.09 0
1.96817194554e-16 -0.09 0
2.8677741003e-16 -0.09 0
8.52721532144e-18 -0.09 0
2.07647698642e-17 -0.09 0
8.92002894179e-17 -0.09 0
-3.56628637816e-16 -0.09 0
5.64397340186e-16 -0.09 0
3.9675952606e-16 -0.09 0
-4.92206546129e-16 -0.09 0
-3.88454123249e-16 -0.09 0
4.56987929919e-16 -0.09 0
-1.06161537766e-16 -0.09 0
1.97393536274e-16 -0.09 0
-4.89310130643e-16 -0.09 0
-2.85939792011e-16 -0.09 0
1.55759808909e-16 -0.09 0
3.32615904712e-16 -0.09 0
-2.13729560111e-16 -0.09 0
-4.02215956875e-16 -0.09 0
7.49664823576e-16 -0.09 0
4.16405926324e-17 -0.09 0
-5.5916366473e-16 -0.09 0
1.73716168965e-16 -0.09 0
1.49639403035e-16 -0.09 0
-5.51503749327e-17 -0.09 0
3.78797820607e-16 -0.09 0
3.18955110104e-16 -0.09 0
2.12470723508e-16 -0.09 0
3.12055072109e-16 -0.09 0
-3.10012341217e-16 -0.09 0
-9.1180824371e-17 -0.09 0
-2.32638746553e-16 -0.09 0
-4.50066865977e-17 -0.09 0
7.42108209804e-16 -0.09 0
-7.93673671773e-16 -0.09 0
3.65541371167e-16 -0.09 0
1.63322945367e-16 -0.09 0
2.43909184405e-16 -0.09 0
1.09977182505e-15 -0.09 0
-7.14094051996e-16 -0.09 0
4.5417320853e-16 -0.09 0
-2.6575372917e-16 -0.09 0
-2.39896399816e-16 -0.09 0
2.79345112623e-16 -0.09 0
-2.01159005496e-16 -0.09 0
3.60248419725e-16 -0.09 0
-1.10543885299e-16 -0.09 0
1.60511816472e-16 -0.09 0
8.56796471132e-17 -0.09 0
-1.12741478193e-16 -0.09 0
-5.09011678081e-16 -0.09 0
3.03333483625e-16 -0.09 0
-7.68158256246e-16 -0.09 0
3.91785685187e-16 -0.09 0
1.74028939432e-16 -0.09 0
-2.62090800911e-16 -0.09 0
-4.69780847211e-16 -0.09 0
-1.33374464883e-16 -0.09 0
-2.06902982983e-16 -0.09 0
-8.3813400791e-16 -0.09 0
1.14584006507e-16 -0.09 0
1.88191386864e-16 -0.09 0
-1.18219545496e-16 -0.09 0
1.7591284267e-16 -0.09 0
-3.46239367466e-16 -0.09 0
2.16561005969e-16 -0.09 0
3.77795132367e-16 -0.09 0
-8.01795151579e-17 -0.09 0
-8.03721202842e-17 -0.09 0
4.82445049734e-17 -0.09 0
3.29425781732e-16 -0.09 0
5.87695975072e-17 -0.09 0
2.55167072806e-16 -0.09 0
-6.90339308787e-16 -0.09 0
3.59349507712e-17 -0.09 0
1.06527941131e-15 -0.09 0
5.7185814946e-17 -0.09 0
4.39629360415e-16 -0.09 0
3.09962520711e-16 -0.09 0
-4.53342283637e-16 -0.09 0
-1.66441240568e-16 -0.09 0
1.73473516442e-16 -0.09 0
5.64778457326e-16 -0.09 0
-4.68860548288e-16 -0.09 0
-3.20246274178e-16 -0.09 0
1.88830892324e-16 -0.09 0
2.89815163188e-16 -0.09 0
1.80825177605e-16 -0.09 0
3.90835925114e-16 -0.09 0
2.01034064312e-17 -0.09 0
-6.81019629573e-16 -0.09 0
-3.33960129646e-16 -0.09 0
-2.78884659641e-16 -0.09 0
-4.51909737136e-17 -0.09 0
3.05606374234e-16 -0.09 0
6.83993348387e-16 -0.09 0
7.3605451877e-16 -0.09 0
-1.61465357334e-16 -0.09 0
-9.36080984256e-16 -0.09 0
1.19530645879e-15 -0.09 0
-2.98250341334e-16 -0.09 0
-3.62789737367e-16 -0.09 0
2.96560934772e-16 -0.09 0
-1.98415130163e-16 -0.09 0
-1.07772961813e-16 -0.09 0
-2.9176455984e-17 -0.09 0
-4.12867201048e-16 -0.09 0
1.4098236702e-16 -0.09 0
-2.15043085838e-16 -0.09 0
2.66377402964e-16 -0.09 0
4.42223936095e-16 -0.09 0
7.24918644429e-16 -0.09 0
1.08989144226e-15 -0.09 0
4.18640912883e-16 -0.09 0
2.98901297033e-16 -0.09 0
-3.18944568283e-16 -0.09 0
-3.37251174527e-16 -0.09 0
-1.06269319393e-15 -0.09 0
-1.99542416401e-17 -0.09 0
-1.62556653603e-16 -0.09 0
2.42757047329e-16 -0.09 0
9.91725306477e-17 -0.09 0
-5.28515665684e-16 -0.09 0
5.65902400887e-16 -0.09 0
1.44196289252e-16 -0.09 0
-5.06184757446e-16 -0.09 0
4.33725948639e-16 -0.09 0
-3.50304673597e-18 -0.09 0
7.0367516272e-16 -0.09 0
1.20990207828e-16 -0.09 0
1.24775309399e-16 -0.09 0
4.41964207416e-16 -0.09 0
-5.09477016348e-16 -0.09 0
-1.06979763847e-15 -0.09 0
-1.74265646368e-16 -0.09 0
3.33791357762e-16 -0.09 0
2.12798988473e-16 -0.09 0
-8.98969334194e-16 -0.09 0
5.36593401144e-17 -0.09 0
9.82965993209e-16 -0.09 0
-3.81912060372e-16 -0.09 0
8.09056615719e-17 -0.09 0
-1.70618088829e-16 -0.09 0
7.31394590982e-17 -0.09 0
-1.59268752387e-16 -0.09 0
1.00113003756e-15 -0.09 0
3.0161354909e-16 -0.09 0
1.61867421293e-16 -0.09 0
9.41304730808e-17 -0.09 0
3.52258856841e-16 -0.09 0
1.79266416156e-16 -0.09 0
2.11607524756e-16 -0.09 0
1.39214291036e-16 -0.09 0
3.11599283411e-16 -0.09 0
-6.53178752218e-16 -0.09 0
1.51137394665e-16 -0.09 0
-4.22497497104e-16 -0.09 0
2.07930259267e-16 -0.09 0
1.59855127467e-16 -0.09 0
-1.40410935833e-16 -0.09 0
3.92485708154e-16 -0.09 0
-9.22166089444e-17 -0.09 0
-1.56788006271e-16 -0.09 0
-3.75679051054e-16 -0.09 0
-4.19157205985e-16 -0.09 0
-1.59328865853e-16 -0.09 0
-2.562491887e-16 -0.09 0
-8.04983118884e-17 -0.09 0
1.8295720889e-16 -0.09 0
3.89664613497e-16 -0.09 0
1.4116345825e-16 -0.09 0
1.79198322903e-16 -0.09 0
-5.56848022657e-16 -0.09 0
8.55624141186e-17 -0.09 0
5.03232268805e-16 -0.09 0
-2.26384634091e-16 -0.09 0
-3.38219832699e-16 -0.09 0
-3.68553492026e-16 -0.09 0
1.89478245663e-16 -0.09 0
1.56731963365e-18 -0.09 0
6.14506082445e-16 -0.09 0
1.33302917202e-15 -0.09 0
3.53297174184e-16 -0.09 0
-1.93430654046e-16 -0.09 0
3.5608367687e-16 -0.09 0
4.56583164906e-16 -0.09 0
3.33049136802e-16 -0.09 0
-7.5954458322e-16 -0.09 0
4.08926247211e-16 -0.09 0
-7.75554364683e-17 -0.09 0
-3.32349584201e-16 -0.09 0
-1.01316140066e-15 -0.09 0
-1.12014074521e-15 -0.09 0
-3.27960294665e-16 -0.09 0
2.12598362226e-16 -0.09 0
1.38649003229e-16 -0.09 0
2.3759193912e-16 -0.09 0
-6.63896053779e-16 -0.09 0
1.18550441445e-16 -0.09 0
-1.50074371505e-16 -0.09 0
9.98049792832e-18 -0.09 0
-4.51058577641e-16 -0.09 0
1.60542103905e-16 -0.09 0
9.21587189133e-16 -0.09 0
-6.5265329862e-17 -0.09 0
1.22620082202e-16 -0.09 0
-5.56772995776e-16 -0.09 0
-3.13684397408e-16 -0.09 0
4.2656043051e-16 -0.09 0
-4.57800427824e-16 -0.09 0
-3.4580393443e-16 -0.09 0
2.13844642908e-16 -0.09 0
1.11024669503e-16 -0.09 0
-1.7675317472e-16 -0.09 0
5.4514110658e-17 -0.09 0
5.53711788315e-16 -0.09 0
-1.59800465068e-16 -0.09 0
1.82100758371e-16 -0.09 0
3.36648866008e-16 -0.09 0
1.45868019803e-15 -0.09 0
1.42481639576e-15 -0.09 0
-1.20146892134e-16 -0.09 0
-2.29687196003e-16 -0.09 0
2.34647952503e-16 -0.09 0
-4.0877616951e-16 -0.09 0
2.92617843217e-16 -0.09 0
-4.16247690652e-16 -0.09 0
3.96755339042e-16 -0.09 0
5.92686277607e-16 -0.09 0
2.77645517858e-16 -0.09 0
5.18887740805e-16 -0.09 0
-2.66701072639e-16 -0.09 0
-4.16319955516e-16 -0.09 0
-1.16948958299e-16 -0.09 0
2.37027750588e-16 -0.09 0
5.41141543077e-16 -0.09 0
-7.42734880505e-16 -0.09 0
-1.25008018079e-16 -0.09 0
2.41858701337e-16 -0.09 0
-3.44340404657e-16 -0.09 0
-8.0138531769e-17 -0.09 0
-5.15429314166e-18 -0.09 0
-1.2929949965e-16 -0.09 0
3.94377406344e-17 -0.09 0
-2.12613057654e-16 -0.09 0
-2.78258059967e-16 -0.09 0
-3.66711065091e-16 -0.09 0
2.59822957227e-16 -0.09 0
3.02725862634e-16 -0.09 0
-2.48761463176e-16 -0.09 0
2.14013652251e-16 -0.09 0
7.22964939658e-17 -0.09 0
-1.09424638529e-15 -0.09 0
1.48901633327e-16 -0.09 0
-3.55854905311e-16 -0.09 0
4.49546740806e-16 -0.09 0
-9.76728695549e-17 -0.09 0
1.6880435891e-16 -0.09 0
1.08660599867e-16 -0.09 0
3.29501746567e-16 -0.09 0
3.15564881096e-16 -0.09 0
9.14094368231e-16 -0.09 0
-2.59006343481e-16 -0.09 0
-4.80237374834e-16 -0.09 0
-6.08192631054e-17 -0.09 0
-2.77887258135e-16 -0.09 0
-5.63369220767e-16 -0.09 0
-5.7448848032e-16 -0.09 0
-2.01748507569e-16 -0.09 0
2.79676132889e-16 -0.09 0
-4.75108051462e-16 -0.09 0
1.31989200725e-16 -0.09 0
-4.39480106913e-16 -0.09 0
5.28222797534e-16 -0.09 0
3.96187640467e-16 -0.09 0
-1.16063198655e-15 -0.09 0
-5.45114475342e-16 -0.09 0
2.21242004715e-16 -0.09 0
-2.8668750424e-16 -0.09 0
2.1997211715e-16 -0.09 0
2.72079068285e-16 -0.09 0
-8.29872877295e-17 -0.09 0
-2.79618269354e-16 -0.09 0
-3.95548828205e-16 -0.09 0
-3.13822442711e-17 -0.09 0
3.02548334053e-16 -0.09 0
7.19411251434e-16 -0.09 0
3.62209129879e-17 -0.09 0
-8.52705140796e-16 -0.09 0
-2.30619291423e-16 -0.09 0
-6.03909725292e-16 -0.09 0
8.34514349951e-17 -0.09 0
1.00245298287e-15 -0.09 0
8.55751270085e-16 -0.09 0
2.22707691558e-16 -0.09 0
-7.13828924965e-16 -0.09 0
-4.1822010494e-16 -0.09 0
3.68350564413e-16 -0.09 0
-1.75106481452e-16 -0.09 0
6.56154158552e-17 -0.09 0
-1.22869912879e-15 -0.09 0
-2.46506129711e-16 -0.09 0
1.8302183557e-16 -0.09 0
6.44622064177e-16 -0.09 0
3.04802710565e-16 -0.09 0
1.24017351992e-16 -0.09 0
-2.12457334157e-16 -0.09 0
2.3103748217e-16 -0.09 0
1.51363445179e-16 -0.09 0
1.39610966943e-15 -0.09 0
1.11764698489e-17 -0.09 0
3.59080496211e-16 -0.09 0
-3.86798493432e-16 -0.09 0
-3.23002067498e-16 -0.09 0
-1.53758881867e-16 -0.09 0
3.69339258119e-16 -0.09 0
-5.61918331446e-17 -0.09 0
1.56489478586e-16 -0.09 0
-2.61292751815e-16 -0.09 0
1.14065552525e-16 -0.09 0
3.08850743453e-16 -0.09 0
3.10469669619e-16 -0.09 0
-6.91328837609e-16 -0.09 0
-4.91012816412e-16 -0.09 0
-4.0888394056e-16 -0.09 0
-7.69861685186e-17 -0.09 0
4.70675539378e-17 -0.09 0
-2.41199682842e-16 -0.09 0
6.55855183047e-16 -0.09 0
2.07814947629e-16 -0.09 0
1.04574973258e-16 -0.09 0
3.81276436723e-16 -0.09 0
1.89944672189e-16 -0.09 0
2.68893568849e-16 -0.09 0
-1.62677797442e-17 -0.09 0
-2.08044694736e-16 -0.09 0
1.89429573701e-16 -0.09 0
-6.21377729536e-17 -0.09 0
-3.76563101088e-16 -0.09 0
1.19129508781e-15 -0.09 0
2.0584365571e-16 -0.09 0
-3.9715146064e-16 -0.09 0
3.15216300108e-16 -0.09 0
-2.26826666991e-16 -0.09 0
-7.9211030104e-16 -0.09 0
-5.9714736986e-16 -0.09 0
-4.75773359066e-16 -0.09 0
9.20666925848e-16 -0.09 0
5.48864925458e-16 -0.09 0
3.69389981215e-16 -0.09 0
7.0910759305e-18 -0.09 0
3.64374519266e-16 -0.09 0
-2.77755408811e-16 -0.09 0
-3.96754917896e-16 -0.09 0
1.21119278722e-17 -0.09 0
1.55991860991e-15 -0.09 0
8.2323251032e-17 -0.09 0
1.31963178066e-16 -0.09 0
-3.4985127668e-17 -0.09 0
4.92584586476e-17 -0.09 0
-1.04366615947e-15 -0.09 0
4.25720682514e-17 -0.09 0
-3.67629100663e-16 -0.09 0
1.76548137338e-17 -0.09 0
-4.65507554524e-17 -0.09 0
3.62562249298e-16 -0.09 0
4.98885778328e-16 -0.09 0
2.1387328776e-16 -0.09 0
3.56030897883e-16 -0.09 0
-1.12848289666e-15 -0.09 0
6.64286381626e-16 -0.09 0
1.15690371661e-15 -0.09 0
-1.81660797709e-16 -0.09 0
-3.05660901511e-16 -0.09 0
-4.67036137255e-16 -0.09 0
-8.2698680368e-16 -0.09 0
-5.48924307857e-16 -0.09 0
1.17441383685e-15 -0.09 0
6.21331732863e-17 -0.09 0
-1.92505730454e-16 -0.09 0
-4.62443750792e-17 -0.09 0
-9.49905568765e-17 -0.09 0
9.32312133137e-17 -0.09 0
4.96451039089e-18 -0.09 0
-1.64015379753e-16 -0.09 0
1.99127128833e-16 -0.09 0
7.35339181425e-17 -0.09 0
-1.31653094866e-15 -0.09 0
6.16270742195e-16 -0.09 0
8.22131393711e-17 -0.09 0
-9.98993346141e-16 -0.09 0
4.8515517847e-16 -0.09 0
3.28913822816e-16 -0.09 0
3.42696506933e-16 -0.09 0
2.16048785432e-16 -0.09 0
-2.88518176344e-16 -0.09 0
1.73348457867e-16 -0.09 0
1.30229718284e-15 -0.09 0
3.30909690109e-16 -0.09 0
-1.55837579617e-17 -0.09 0
-3.2530902335e-16 -0.09 0
-2.07359460277e-16 -0.09 0
2.28320738019e-16 -0.09 0
1.41313301511e-16 -0.09 0
-3.39229985773e-16 -0.09 0
-2.31478968487e-16 -0.09 0
-3.82380513627e-16 -0.09 0
-1.16082022184e-15 -0.09 0
1.47951666688e-16 -0.09 0
7.14318659888e-16 -0.09 0
-1.1526091978e-16 -0.09 0
-8.12672908112e-16 -0.09 0
3.51057523032e-16 -0.09 0
9.23362564133e-16 -0.09 0
7.48125134385e-17 -0.09 0
7.17421307456e-17 -0.09 0
7.65460101809e-16 -0.09 0
1.84586512692e-18 -0.09 0
1.89085640862e-16 -0.09 0
-2.74165234677e-16 -0.09 0
-5.65943138723e-16 -0.09 0
1.68089425744e-16 -0.09 0
3.29970145697e-16 -0.09 0
4.14454728083e-16 -0.09 0
-2.37116415083e-16 -0.09 0
4.73477555891e-16 -0.09 0
-1.3364412926e-16 -0.09 0
-4.19371582979e-16 -0.09 0
2.61664678302e-16 -0.09 0
-3.60614966422e-16 -0.09 0
4.64087946925e-17 -0.09 0
-4.07706972175e-16 -0.09 0
2.01066190516e-16 -0.09 0
2.38920385103e-17 -0.09 0
1.86793737965e-16 -0.09 0
7.52115421104e-17 -0.09 0
1.15269767995e-16 -0.09 0
-6.94832640526e-17 -0.09 0
2.27117223055e-16 -0.09 0
3.4193645745e-16 -0.09 0
1.72488347646e-16 -0.09 0
-1.1089169772e-15 -0.09 0
-1.35545036822e-16 -0.09 0
4.14223604729e-16 -0.09 0
4.51434905874e-16 -0.09 0
-3.62809418828e-16 -0.09 0
1.58370923635e-16 -0.09 0
-4.05643670175e-16 -0.09 0
-3.42965890885e-16 -0.09 0
5.88121256922e-17 -0.09 0
-3.09459653768e-16 -0.09 0
-1.14990379246e-17 -0.09 0
4.05822710335e-16 -0.09 0
1.63204659052e-16 -0.09 0
1.68161441079e-16 -0.09 0
1.73501260657e-17 -0.09 0
-6.98714033387e-17 -0.09 0
-4.33251057668e-16 -0.09 0
9.09677877234e-17 -0.09 0
3.86939828743e-16 -0.09 0
2.67424111262e-16 -0.09 0
-6.43934934438e-16 -0.09 0
-2.18399945288e-16 -0.09 0
-3.43983873454e-16 -0.09 0
-2.48845497277e-16 -0.09 0
2.82913932252e-16 -0.09 0
-5.71177298966e-17 -0.09 0
-6.8330114386e-16 -0.09 0
5.23250085115e-18 -0.09 0
4.47945097137e-16 -0.09 0
-2.18192039463e-16 -0.09 0
1.58458621314e-15 -0.09 0
6.32046250855e-16 -0.09 0
-4.52816763523e-16 -0.09 0
-2.32856481449e-16 -0.09 0
7.93117505055e-16 -0.09 0
-1.07903326069e-16 -0.09 0
3.13876499568e-16 -0.09 0
-1.26064588267e-16 -0.09 0
-2.84786910814e-16 -0.09 0
3.49600836731e-16 -0.09 0
5.27563096281e-16 -0.09 0
2.17853441e-16 -0.09 0
4.37477550773e-16 -0.09 0
2.94138068901e-16 -0.09 0
-8.99345504484e-16 -0.09 0
6.78533527974e-17 -0.09 0
-1.3568425768e-16 -0.09 0
-3.60201114186e-16 -0.09 0
1.88732039542e-16 -0.09 0
2.67497964163e-16 -0.09 0
1.21169720825e-16 -0.09 0
-3.22495725243e-16 -0.09 0
-4.82221898553e-16 -0.09 0
1.23715073693e-16 -0.09 0
1.04492619827e-15 -0.09 0
-4.78265514562e-16 -0.09 0
-1.25405921967e-15 -0.09 0
2.29466010696e-16 -0.09 0
-1.40054631016e-16 -0.09 0
2.82996071415e-16 -0.09 0
8.22490858834e-16 -0.09 0
3.11642001314e-16 -0.09 0
-1.39699779753e-16 -0.09 0
2.40702933215e-16 -0.09 0
4.57857873214e-16 -0.09 0
4.52274862606e-16 -0.09 0
3.18875553252e-16 -0.09 0
1.89719420287e-16 -0.09 0
-9.05230916492e-17 -0.09 0
-1.0088591026e-15 -0.09 0
1.98835121528e-16 -0.09 0
2.34001529311e-16 -0.09 0
3.01280053565e-16 -0.09 0
3.96147174052e-16 -0.09 0
3.86323523587e-16 -0.09 0
-3.45203832305e-16 -0.09 0
5.5476579079e-16 -0.09 0
-5.27621951488e-16 -0.09 0
9.05466653107e-17 -0.09 0
-1.0735889755e-16 -0.09 0
4.50174641009e-16 -0.09 0
3.00563336509e-16 -0.09 0
2.08053840448e-16 -0.09 0
1.52790556427e-15 -0.09 0
3.76347041942e-16 -0.09 0
1.37955387618e-15 -0.09 0
-6.06820944635e-17 -0.09 0
1.0161360856e-16 -0.09 0
8.29029007116e-16 -0.09 0
-1.83369316563e-16 -0.09 0
5.06127895249e-16 -0.09 0
2.87935975959e-17 -0.09 0
-2.29904227695e-16 -0.09 0
9.91853254968e-16 -0.09 0
-2.66290338494e-16 -0.09 0
-5.12376221843e-16 -0.09 0
-4.55620689598e-16 -0.09 0
-3.77016342742e-16 -0.09 0
7.92531452632e-16 -0.09 0
1.95178474806e-16 -0.09 0
-4.29147752126e-16 -0.09 0
-1.31606457844e-16 -0.09 0
-3.01342195902e-16 -0.09 0
5.20425823633e-17 -0.09 0
2.82829244166e-17 -0.09 0
1.13621472211e-17 -0.09 0
4.72284350014e-17 -0.09 0
7.54090063086e-16 -0.09 0
-3.70621366526e-16 -0.09 0
1.1706274401e-16 -0.09 0
5.16963416176e-17 -0.09 0
1.37964150421e-16 -0.09 0
-1.29340607736e-16 -0.09 0
-8.31668862003e-16 -0.09 0
1.01591910136e-16 -0.09 0
-9.57350462983e-17 -0.09 0
-9.88275130158e-17 -0.09 0
3.89211816532e-16 -0.09 0
5.56857326588e-16 -0.09 0
2.06698906751e-16 -0.09 0
3.02912918328e-16 -0.09 0
-2.12995593144e-16 -0.09 0
1.8590309795e-16 -0.09 0
1.52907839693e-16 -0.09 0
-7.08180612063e-16 -0.09 0
-1.24529993853e-16 -0.09 0
3.1859849501e-16 -0.09 0
2.043839653e-16 -0.09 0
1.05296024515e-15 -0.09 0
7.32483177207e-17 -0.09 0
2.23255621924e-16 -0.09 0
-3.30021090179e-16 -0.09 0
2.0818164468e-16 -0.09 0
2.47980305208e-16 -0.09 0
-7.22940548277e-16 -0.09 0
-7.0439395259e-16 -0.09 0
-2.8169093813e-16 -0.09 0
4.93731705761e-16 -0.09 0
3.9225898133e-16 -0.09 0
5.22233523486e-17 -0.09 0
-7.92845278343e-17 -0.09 0
1.90424567613e-16 -0.09 0
4.01630549895e-16 -0.09 0
1.06224176325e-15 -0.09 0
2.19573134817e-16 -0.09 0
1.67695254223e-16 -0.09 0
5.02880885088e-16 -0.09 0
4.18047288845e-16 -0.09 0
-6.23902367919e-16 -0.09 0
-7.98679653279e-16 -0.09 0
2.32095272403e-16 -0.09 0
4.88357646908e-16 -0.09 0
-2.15602647136e-16 -0.09 0
-9.302319612e-17 -0.09 0
-1.95496828739e-16 -0.09 0
1.7081795661e-16 -0.09 0
-1.70249973253e-16 -0.09 0
7.12102386419e-17 -0.09 0
-1.00217103648e-15 -0.09 0
1.03754496506e-16 -0.09 0
1.82822226261e-16 -0.09 0
7.72069802786e-17 -0.09 0
6.09649080945e-16 -0.09 0
-5.6278801769e-16 -0.09 0
-2.0441859573e-16 -0.09 0
-1.66570157067e-16 -0.09 0
2.18549754631e-16 -0.09 0
-1.95252403209e-16 -0.09 0
-5.19702749273e-16 -0.09 0
3.2779621529e-16 -0.09 0
1.81985833069e-16 -0.09 0
2.85831847052e-16 -0.09 0
-3.57150683765e-16 -0.09 0
3.21388925062e-16 -0.09 0
2.29963470512e-18 -0.09 0
-8.65590795792e-18 -0.09 0
-1.95225329723e-16 -0.09 0
2.80789512607e-16 -0.09 0
-1.19572913227e-16 -0.09 0
-3.99666431636e-17 -0.09 0
-1.09374400833e-16 -0.09 0
-3.88113620291e-16 -0.09 0
1.22049956652e-15 -0.09 0
1.67481601032e-15 -0.09 0
1.0126671764e-16 -0.09 0
-1.10637477138e-16 -0.09 0
-8.01092529727e-17 -0.09 0
-2.4975576126e-16 -0.09 0
1.04044168664e-16 -0.09 0
4.042919732e-16 -0.09 0
-4.11133590741e-16 -0.09 0
2.71289357093e-16 -0.09 0
3.51908048477e-16 -0.09 0
2.25895032244e-16 -0.09 0
4.90095099078e-17 -0.09 0
-3.88701604578e-16 -0.09 0
1.99907862109e-16 -0.09 0
1.50689724738e-16 -0.09 0
3.76174947524e-16 -0.09 0
5.89684542423e-16 -0.09 0
1.26322568624e-16 -0.09 0